<?xml version="1.0" encoding="UTF-8"?>

<!-- generated on 2026-07-17 17:25:12 by Eclipse SUMO sumo Version 1.20.0
<configuration xmlns:xsi="http://www.w3.org/2001/XMLSchema-instance" xsi:noNamespaceSchemaLocation="http://sumo.dlr.de/xsd/sumoConfiguration.xsd">

    <input>
        <net-file value="net.net.xml"/>
        <route-files value="rou.rou.xml"/>
    </input>

    <output>
        <precision value="6"/>
        <fcd-output value="golden.fcd.xml"/>
        <fcd-output.acceleration value="true"/>
        <save-state.times value="1"/>
        <save-state.files value="golden.state.xml"/>
    </output>

    <time>
        <begin value="0"/>
        <end value="100"/>
        <step-length value="1"/>
    </time>

    <processing>
        <step-method.ballistic value="false"/>
        <time-to-teleport value="-1"/>
        <default.action-step-length value="1"/>
        <default.speeddev value="0"/>
    </processing>

    <report>
        <no-step-log value="true"/>
    </report>

    <random_number>
        <seed value="42"/>
    </random_number>

</configuration>
-->

<fcd-export xmlns:xsi="http://www.w3.org/2001/XMLSchema-instance" xsi:noNamespaceSchemaLocation="http://sumo.dlr.de/xsd/fcd_file.xsd">
    <timestep time="0.000">
        <vehicle id="v0" x="0.000000" y="-4.800000" angle="90.000000" type="car" speed="13.890000" pos="0.000000" lane="AB_0" slope="0.000000" acceleration="0.000000"/>
    </timestep>
    <timestep time="1.000">
        <vehicle id="v0" x="13.890000" y="-4.800000" angle="90.000000" type="car" speed="13.890000" pos="13.890000" lane="AB_0" slope="0.000000" acceleration="0.000000"/>
        <vehicle id="v1" x="0.000000" y="-1.600000" angle="90.000000" type="car" speed="13.890000" pos="0.000000" lane="AB_1" slope="0.000000" acceleration="0.000000"/>
    </timestep>
    <timestep time="2.000">
        <vehicle id="v0" x="27.780000" y="-4.800000" angle="90.000000" type="car" speed="13.890000" pos="27.780000" lane="AB_0" slope="0.000000" acceleration="0.000000"/>
        <vehicle id="v1" x="13.890000" y="-1.600000" angle="90.000000" type="car" speed="13.890000" pos="13.890000" lane="AB_1" slope="0.000000" acceleration="0.000000"/>
        <vehicle id="v2" x="0.000000" y="-4.800000" angle="90.000000" type="car" speed="13.890000" pos="0.000000" lane="AB_0" slope="0.000000" acceleration="0.000000"/>
    </timestep>
    <timestep time="3.000">
        <vehicle id="v0" x="41.670000" y="-4.800000" angle="90.000000" type="car" speed="13.890000" pos="41.670000" lane="AB_0" slope="0.000000" acceleration="0.000000"/>
        <vehicle id="v1" x="27.780000" y="-1.600000" angle="90.000000" type="car" speed="13.890000" pos="27.780000" lane="AB_1" slope="0.000000" acceleration="0.000000"/>
        <vehicle id="v2" x="13.890000" y="-4.800000" angle="90.000000" type="car" speed="13.890000" pos="13.890000" lane="AB_0" slope="0.000000" acceleration="0.000000"/>
        <vehicle id="v3" x="0.000000" y="-1.600000" angle="90.000000" type="car" speed="13.890000" pos="0.000000" lane="AB_1" slope="0.000000" acceleration="0.000000"/>
    </timestep>
    <timestep time="4.000">
        <vehicle id="v0" x="55.560000" y="-4.800000" angle="90.000000" type="car" speed="13.890000" pos="55.560000" lane="AB_0" slope="0.000000" acceleration="0.000000"/>
        <vehicle id="v1" x="41.670000" y="-1.600000" angle="90.000000" type="car" speed="13.890000" pos="41.670000" lane="AB_1" slope="0.000000" acceleration="0.000000"/>
        <vehicle id="v2" x="27.780000" y="-4.800000" angle="90.000000" type="car" speed="13.890000" pos="27.780000" lane="AB_0" slope="0.000000" acceleration="0.000000"/>
        <vehicle id="v3" x="13.890000" y="-1.600000" angle="90.000000" type="car" speed="13.890000" pos="13.890000" lane="AB_1" slope="0.000000" acceleration="0.000000"/>
        <vehicle id="v4" x="0.000000" y="-4.800000" angle="90.000000" type="car" speed="13.890000" pos="0.000000" lane="AB_0" slope="0.000000" acceleration="0.000000"/>
    </timestep>
    <timestep time="5.000">
        <vehicle id="v0" x="69.450000" y="-4.800000" angle="90.000000" type="car" speed="13.890000" pos="69.450000" lane="AB_0" slope="0.000000" acceleration="0.000000"/>
        <vehicle id="v1" x="55.560000" y="-1.600000" angle="90.000000" type="car" speed="13.890000" pos="55.560000" lane="AB_1" slope="0.000000" acceleration="0.000000"/>
        <vehicle id="v2" x="41.670000" y="-4.800000" angle="90.000000" type="car" speed="13.890000" pos="41.670000" lane="AB_0" slope="0.000000" acceleration="0.000000"/>
        <vehicle id="v3" x="27.780000" y="-1.600000" angle="90.000000" type="car" speed="13.890000" pos="27.780000" lane="AB_1" slope="0.000000" acceleration="0.000000"/>
        <vehicle id="v4" x="13.890000" y="-4.800000" angle="90.000000" type="car" speed="13.890000" pos="13.890000" lane="AB_0" slope="0.000000" acceleration="0.000000"/>
        <vehicle id="v5" x="0.000000" y="-1.600000" angle="90.000000" type="car" speed="13.890000" pos="0.000000" lane="AB_1" slope="0.000000" acceleration="0.000000"/>
    </timestep>
    <timestep time="6.000">
        <vehicle id="v0" x="83.340000" y="-4.800000" angle="90.000000" type="car" speed="13.890000" pos="83.340000" lane="AB_0" slope="0.000000" acceleration="0.000000"/>
        <vehicle id="v1" x="69.450000" y="-1.600000" angle="90.000000" type="car" speed="13.890000" pos="69.450000" lane="AB_1" slope="0.000000" acceleration="0.000000"/>
        <vehicle id="v2" x="55.560000" y="-4.800000" angle="90.000000" type="car" speed="13.890000" pos="55.560000" lane="AB_0" slope="0.000000" acceleration="0.000000"/>
        <vehicle id="v3" x="41.670000" y="-1.600000" angle="90.000000" type="car" speed="13.890000" pos="41.670000" lane="AB_1" slope="0.000000" acceleration="0.000000"/>
        <vehicle id="v4" x="27.780000" y="-4.800000" angle="90.000000" type="car" speed="13.890000" pos="27.780000" lane="AB_0" slope="0.000000" acceleration="0.000000"/>
        <vehicle id="v5" x="13.890000" y="-1.600000" angle="90.000000" type="car" speed="13.890000" pos="13.890000" lane="AB_1" slope="0.000000" acceleration="0.000000"/>
        <vehicle id="v6" x="0.000000" y="-4.800000" angle="90.000000" type="car" speed="13.890000" pos="0.000000" lane="AB_0" slope="0.000000" acceleration="0.000000"/>
    </timestep>
    <timestep time="7.000">
        <vehicle id="v0" x="97.230000" y="-4.800000" angle="90.000000" type="car" speed="13.890000" pos="97.230000" lane="AB_0" slope="0.000000" acceleration="0.000000"/>
        <vehicle id="v1" x="83.340000" y="-1.600000" angle="90.000000" type="car" speed="13.890000" pos="83.340000" lane="AB_1" slope="0.000000" acceleration="0.000000"/>
        <vehicle id="v2" x="69.450000" y="-4.800000" angle="90.000000" type="car" speed="13.890000" pos="69.450000" lane="AB_0" slope="0.000000" acceleration="0.000000"/>
        <vehicle id="v3" x="55.560000" y="-1.600000" angle="90.000000" type="car" speed="13.890000" pos="55.560000" lane="AB_1" slope="0.000000" acceleration="0.000000"/>
        <vehicle id="v4" x="41.670000" y="-4.800000" angle="90.000000" type="car" speed="13.890000" pos="41.670000" lane="AB_0" slope="0.000000" acceleration="0.000000"/>
        <vehicle id="v5" x="27.780000" y="-1.600000" angle="90.000000" type="car" speed="13.890000" pos="27.780000" lane="AB_1" slope="0.000000" acceleration="0.000000"/>
        <vehicle id="v6" x="13.890000" y="-4.800000" angle="90.000000" type="car" speed="13.890000" pos="13.890000" lane="AB_0" slope="0.000000" acceleration="0.000000"/>
        <vehicle id="v7" x="0.000000" y="-1.600000" angle="90.000000" type="car" speed="13.890000" pos="0.000000" lane="AB_1" slope="0.000000" acceleration="0.000000"/>
    </timestep>
    <timestep time="8.000">
        <vehicle id="v0" x="111.120000" y="-4.800000" angle="90.000000" type="car" speed="13.890000" pos="111.120000" lane="AB_0" slope="0.000000" acceleration="0.000000"/>
        <vehicle id="v1" x="97.230000" y="-1.600000" angle="90.000000" type="car" speed="13.890000" pos="97.230000" lane="AB_1" slope="0.000000" acceleration="0.000000"/>
        <vehicle id="v2" x="83.340000" y="-4.800000" angle="90.000000" type="car" speed="13.890000" pos="83.340000" lane="AB_0" slope="0.000000" acceleration="0.000000"/>
        <vehicle id="v3" x="69.450000" y="-1.600000" angle="90.000000" type="car" speed="13.890000" pos="69.450000" lane="AB_1" slope="0.000000" acceleration="0.000000"/>
        <vehicle id="v4" x="55.560000" y="-4.800000" angle="90.000000" type="car" speed="13.890000" pos="55.560000" lane="AB_0" slope="0.000000" acceleration="0.000000"/>
        <vehicle id="v5" x="41.670000" y="-1.600000" angle="90.000000" type="car" speed="13.890000" pos="41.670000" lane="AB_1" slope="0.000000" acceleration="0.000000"/>
        <vehicle id="v6" x="27.780000" y="-4.800000" angle="90.000000" type="car" speed="13.890000" pos="27.780000" lane="AB_0" slope="0.000000" acceleration="0.000000"/>
        <vehicle id="v7" x="13.890000" y="-1.600000" angle="90.000000" type="car" speed="13.890000" pos="13.890000" lane="AB_1" slope="0.000000" acceleration="0.000000"/>
        <vehicle id="v8" x="0.000000" y="-4.800000" angle="90.000000" type="car" speed="13.890000" pos="0.000000" lane="AB_0" slope="0.000000" acceleration="0.000000"/>
    </timestep>
    <timestep time="9.000">
        <vehicle id="v0" x="125.010000" y="-4.800000" angle="90.000000" type="car" speed="13.890000" pos="125.010000" lane="AB_0" slope="0.000000" acceleration="0.000000"/>
        <vehicle id="v1" x="111.120000" y="-1.600000" angle="90.000000" type="car" speed="13.890000" pos="111.120000" lane="AB_1" slope="0.000000" acceleration="0.000000"/>
        <vehicle id="v2" x="97.230000" y="-4.800000" angle="90.000000" type="car" speed="13.890000" pos="97.230000" lane="AB_0" slope="0.000000" acceleration="0.000000"/>
        <vehicle id="v3" x="83.340000" y="-1.600000" angle="90.000000" type="car" speed="13.890000" pos="83.340000" lane="AB_1" slope="0.000000" acceleration="0.000000"/>
        <vehicle id="v4" x="69.450000" y="-4.800000" angle="90.000000" type="car" speed="13.890000" pos="69.450000" lane="AB_0" slope="0.000000" acceleration="0.000000"/>
        <vehicle id="v5" x="55.560000" y="-1.600000" angle="90.000000" type="car" speed="13.890000" pos="55.560000" lane="AB_1" slope="0.000000" acceleration="0.000000"/>
        <vehicle id="v6" x="41.670000" y="-4.800000" angle="90.000000" type="car" speed="13.890000" pos="41.670000" lane="AB_0" slope="0.000000" acceleration="0.000000"/>
        <vehicle id="v7" x="27.780000" y="-1.600000" angle="90.000000" type="car" speed="13.890000" pos="27.780000" lane="AB_1" slope="0.000000" acceleration="0.000000"/>
        <vehicle id="v8" x="13.890000" y="-4.800000" angle="90.000000" type="car" speed="13.890000" pos="13.890000" lane="AB_0" slope="0.000000" acceleration="0.000000"/>
        <vehicle id="v9" x="0.000000" y="-1.600000" angle="90.000000" type="car" speed="13.890000" pos="0.000000" lane="AB_1" slope="0.000000" acceleration="0.000000"/>
    </timestep>
    <timestep time="10.000">
        <vehicle id="v0" x="138.900000" y="-4.800000" angle="90.000000" type="car" speed="13.890000" pos="138.900000" lane="AB_0" slope="0.000000" acceleration="0.000000"/>
        <vehicle id="v1" x="125.010000" y="-1.600000" angle="90.000000" type="car" speed="13.890000" pos="125.010000" lane="AB_1" slope="0.000000" acceleration="0.000000"/>
        <vehicle id="v10" x="0.000000" y="-4.800000" angle="90.000000" type="car" speed="13.890000" pos="0.000000" lane="AB_0" slope="0.000000" acceleration="0.000000"/>
        <vehicle id="v2" x="111.120000" y="-4.800000" angle="90.000000" type="car" speed="13.890000" pos="111.120000" lane="AB_0" slope="0.000000" acceleration="0.000000"/>
        <vehicle id="v3" x="97.230000" y="-1.600000" angle="90.000000" type="car" speed="13.890000" pos="97.230000" lane="AB_1" slope="0.000000" acceleration="0.000000"/>
        <vehicle id="v4" x="83.340000" y="-4.800000" angle="90.000000" type="car" speed="13.890000" pos="83.340000" lane="AB_0" slope="0.000000" acceleration="0.000000"/>
        <vehicle id="v5" x="69.450000" y="-1.600000" angle="90.000000" type="car" speed="13.890000" pos="69.450000" lane="AB_1" slope="0.000000" acceleration="0.000000"/>
        <vehicle id="v6" x="55.560000" y="-4.800000" angle="90.000000" type="car" speed="13.890000" pos="55.560000" lane="AB_0" slope="0.000000" acceleration="0.000000"/>
        <vehicle id="v7" x="41.670000" y="-1.600000" angle="90.000000" type="car" speed="13.890000" pos="41.670000" lane="AB_1" slope="0.000000" acceleration="0.000000"/>
        <vehicle id="v8" x="27.780000" y="-4.800000" angle="90.000000" type="car" speed="13.890000" pos="27.780000" lane="AB_0" slope="0.000000" acceleration="0.000000"/>
        <vehicle id="v9" x="13.890000" y="-1.600000" angle="90.000000" type="car" speed="13.890000" pos="13.890000" lane="AB_1" slope="0.000000" acceleration="0.000000"/>
    </timestep>
    <timestep time="11.000">
        <vehicle id="v0" x="152.790000" y="-4.800000" angle="90.000000" type="car" speed="13.890000" pos="152.790000" lane="AB_0" slope="0.000000" acceleration="0.000000"/>
        <vehicle id="v1" x="138.900000" y="-1.600000" angle="90.000000" type="car" speed="13.890000" pos="138.900000" lane="AB_1" slope="0.000000" acceleration="0.000000"/>
        <vehicle id="v10" x="13.890000" y="-4.800000" angle="90.000000" type="car" speed="13.890000" pos="13.890000" lane="AB_0" slope="0.000000" acceleration="0.000000"/>
        <vehicle id="v11" x="0.000000" y="-1.600000" angle="90.000000" type="car" speed="13.890000" pos="0.000000" lane="AB_1" slope="0.000000" acceleration="0.000000"/>
        <vehicle id="v2" x="125.010000" y="-4.800000" angle="90.000000" type="car" speed="13.890000" pos="125.010000" lane="AB_0" slope="0.000000" acceleration="0.000000"/>
        <vehicle id="v3" x="111.120000" y="-1.600000" angle="90.000000" type="car" speed="13.890000" pos="111.120000" lane="AB_1" slope="0.000000" acceleration="0.000000"/>
        <vehicle id="v4" x="97.230000" y="-4.800000" angle="90.000000" type="car" speed="13.890000" pos="97.230000" lane="AB_0" slope="0.000000" acceleration="0.000000"/>
        <vehicle id="v5" x="83.340000" y="-1.600000" angle="90.000000" type="car" speed="13.890000" pos="83.340000" lane="AB_1" slope="0.000000" acceleration="0.000000"/>
        <vehicle id="v6" x="69.450000" y="-4.800000" angle="90.000000" type="car" speed="13.890000" pos="69.450000" lane="AB_0" slope="0.000000" acceleration="0.000000"/>
        <vehicle id="v7" x="55.560000" y="-1.600000" angle="90.000000" type="car" speed="13.890000" pos="55.560000" lane="AB_1" slope="0.000000" acceleration="0.000000"/>
        <vehicle id="v8" x="41.670000" y="-4.800000" angle="90.000000" type="car" speed="13.890000" pos="41.670000" lane="AB_0" slope="0.000000" acceleration="0.000000"/>
        <vehicle id="v9" x="27.780000" y="-1.600000" angle="90.000000" type="car" speed="13.890000" pos="27.780000" lane="AB_1" slope="0.000000" acceleration="0.000000"/>
    </timestep>
    <timestep time="12.000">
        <vehicle id="v0" x="166.680000" y="-4.800000" angle="90.000000" type="car" speed="13.890000" pos="166.680000" lane="AB_0" slope="0.000000" acceleration="0.000000"/>
        <vehicle id="v1" x="152.790000" y="-1.600000" angle="90.000000" type="car" speed="13.890000" pos="152.790000" lane="AB_1" slope="0.000000" acceleration="0.000000"/>
        <vehicle id="v10" x="27.780000" y="-4.800000" angle="90.000000" type="car" speed="13.890000" pos="27.780000" lane="AB_0" slope="0.000000" acceleration="0.000000"/>
        <vehicle id="v11" x="13.890000" y="-1.600000" angle="90.000000" type="car" speed="13.890000" pos="13.890000" lane="AB_1" slope="0.000000" acceleration="0.000000"/>
        <vehicle id="v12" x="0.000000" y="-4.800000" angle="90.000000" type="car" speed="13.890000" pos="0.000000" lane="AB_0" slope="0.000000" acceleration="0.000000"/>
        <vehicle id="v2" x="138.900000" y="-4.800000" angle="90.000000" type="car" speed="13.890000" pos="138.900000" lane="AB_0" slope="0.000000" acceleration="0.000000"/>
        <vehicle id="v3" x="125.010000" y="-1.600000" angle="90.000000" type="car" speed="13.890000" pos="125.010000" lane="AB_1" slope="0.000000" acceleration="0.000000"/>
        <vehicle id="v4" x="111.120000" y="-4.800000" angle="90.000000" type="car" speed="13.890000" pos="111.120000" lane="AB_0" slope="0.000000" acceleration="0.000000"/>
        <vehicle id="v5" x="97.230000" y="-1.600000" angle="90.000000" type="car" speed="13.890000" pos="97.230000" lane="AB_1" slope="0.000000" acceleration="0.000000"/>
        <vehicle id="v6" x="83.340000" y="-4.800000" angle="90.000000" type="car" speed="13.890000" pos="83.340000" lane="AB_0" slope="0.000000" acceleration="0.000000"/>
        <vehicle id="v7" x="69.450000" y="-1.600000" angle="90.000000" type="car" speed="13.890000" pos="69.450000" lane="AB_1" slope="0.000000" acceleration="0.000000"/>
        <vehicle id="v8" x="55.560000" y="-4.800000" angle="90.000000" type="car" speed="13.890000" pos="55.560000" lane="AB_0" slope="0.000000" acceleration="0.000000"/>
        <vehicle id="v9" x="41.670000" y="-1.600000" angle="90.000000" type="car" speed="13.890000" pos="41.670000" lane="AB_1" slope="0.000000" acceleration="0.000000"/>
    </timestep>
    <timestep time="13.000">
        <vehicle id="v0" x="180.570000" y="-4.800000" angle="90.000000" type="car" speed="13.890000" pos="180.570000" lane="AB_0" slope="0.000000" acceleration="0.000000"/>
        <vehicle id="v1" x="166.680000" y="-1.600000" angle="90.000000" type="car" speed="13.890000" pos="166.680000" lane="AB_1" slope="0.000000" acceleration="0.000000"/>
        <vehicle id="v10" x="41.670000" y="-4.800000" angle="90.000000" type="car" speed="13.890000" pos="41.670000" lane="AB_0" slope="0.000000" acceleration="0.000000"/>
        <vehicle id="v11" x="27.780000" y="-1.600000" angle="90.000000" type="car" speed="13.890000" pos="27.780000" lane="AB_1" slope="0.000000" acceleration="0.000000"/>
        <vehicle id="v12" x="13.890000" y="-4.800000" angle="90.000000" type="car" speed="13.890000" pos="13.890000" lane="AB_0" slope="0.000000" acceleration="0.000000"/>
        <vehicle id="v13" x="0.000000" y="-1.600000" angle="90.000000" type="car" speed="13.890000" pos="0.000000" lane="AB_1" slope="0.000000" acceleration="0.000000"/>
        <vehicle id="v2" x="152.790000" y="-4.800000" angle="90.000000" type="car" speed="13.890000" pos="152.790000" lane="AB_0" slope="0.000000" acceleration="0.000000"/>
        <vehicle id="v3" x="138.900000" y="-1.600000" angle="90.000000" type="car" speed="13.890000" pos="138.900000" lane="AB_1" slope="0.000000" acceleration="0.000000"/>
        <vehicle id="v4" x="125.010000" y="-4.800000" angle="90.000000" type="car" speed="13.890000" pos="125.010000" lane="AB_0" slope="0.000000" acceleration="0.000000"/>
        <vehicle id="v5" x="111.120000" y="-1.600000" angle="90.000000" type="car" speed="13.890000" pos="111.120000" lane="AB_1" slope="0.000000" acceleration="0.000000"/>
        <vehicle id="v6" x="97.230000" y="-4.800000" angle="90.000000" type="car" speed="13.890000" pos="97.230000" lane="AB_0" slope="0.000000" acceleration="0.000000"/>
        <vehicle id="v7" x="83.340000" y="-1.600000" angle="90.000000" type="car" speed="13.890000" pos="83.340000" lane="AB_1" slope="0.000000" acceleration="0.000000"/>
        <vehicle id="v8" x="69.450000" y="-4.800000" angle="90.000000" type="car" speed="13.890000" pos="69.450000" lane="AB_0" slope="0.000000" acceleration="0.000000"/>
        <vehicle id="v9" x="55.560000" y="-1.600000" angle="90.000000" type="car" speed="13.890000" pos="55.560000" lane="AB_1" slope="0.000000" acceleration="0.000000"/>
    </timestep>
    <timestep time="14.000">
        <vehicle id="v0" x="194.460000" y="-4.800000" angle="90.000000" type="car" speed="13.890000" pos="194.460000" lane="AB_0" slope="0.000000" acceleration="0.000000"/>
        <vehicle id="v1" x="180.570000" y="-1.600000" angle="90.000000" type="car" speed="13.890000" pos="180.570000" lane="AB_1" slope="0.000000" acceleration="0.000000"/>
        <vehicle id="v10" x="55.560000" y="-4.800000" angle="90.000000" type="car" speed="13.890000" pos="55.560000" lane="AB_0" slope="0.000000" acceleration="0.000000"/>
        <vehicle id="v11" x="41.670000" y="-1.600000" angle="90.000000" type="car" speed="13.890000" pos="41.670000" lane="AB_1" slope="0.000000" acceleration="0.000000"/>
        <vehicle id="v12" x="27.780000" y="-4.800000" angle="90.000000" type="car" speed="13.890000" pos="27.780000" lane="AB_0" slope="0.000000" acceleration="0.000000"/>
        <vehicle id="v13" x="13.890000" y="-1.600000" angle="90.000000" type="car" speed="13.890000" pos="13.890000" lane="AB_1" slope="0.000000" acceleration="0.000000"/>
        <vehicle id="v14" x="0.000000" y="-4.800000" angle="90.000000" type="car" speed="13.890000" pos="0.000000" lane="AB_0" slope="0.000000" acceleration="0.000000"/>
        <vehicle id="v2" x="166.680000" y="-4.800000" angle="90.000000" type="car" speed="13.890000" pos="166.680000" lane="AB_0" slope="0.000000" acceleration="0.000000"/>
        <vehicle id="v3" x="152.790000" y="-1.600000" angle="90.000000" type="car" speed="13.890000" pos="152.790000" lane="AB_1" slope="0.000000" acceleration="0.000000"/>
        <vehicle id="v4" x="138.900000" y="-4.800000" angle="90.000000" type="car" speed="13.890000" pos="138.900000" lane="AB_0" slope="0.000000" acceleration="0.000000"/>
        <vehicle id="v5" x="125.010000" y="-1.600000" angle="90.000000" type="car" speed="13.890000" pos="125.010000" lane="AB_1" slope="0.000000" acceleration="0.000000"/>
        <vehicle id="v6" x="111.120000" y="-4.800000" angle="90.000000" type="car" speed="13.890000" pos="111.120000" lane="AB_0" slope="0.000000" acceleration="0.000000"/>
        <vehicle id="v7" x="97.230000" y="-1.600000" angle="90.000000" type="car" speed="13.890000" pos="97.230000" lane="AB_1" slope="0.000000" acceleration="0.000000"/>
        <vehicle id="v8" x="83.340000" y="-4.800000" angle="90.000000" type="car" speed="13.890000" pos="83.340000" lane="AB_0" slope="0.000000" acceleration="0.000000"/>
        <vehicle id="v9" x="69.450000" y="-1.600000" angle="90.000000" type="car" speed="13.890000" pos="69.450000" lane="AB_1" slope="0.000000" acceleration="0.000000"/>
    </timestep>
    <timestep time="15.000">
        <vehicle id="v0" x="208.350000" y="-4.800000" angle="90.000000" type="car" speed="13.890000" pos="208.350000" lane="AB_0" slope="0.000000" acceleration="0.000000"/>
        <vehicle id="v1" x="194.460000" y="-1.600000" angle="90.000000" type="car" speed="13.890000" pos="194.460000" lane="AB_1" slope="0.000000" acceleration="0.000000"/>
        <vehicle id="v10" x="69.450000" y="-4.800000" angle="90.000000" type="car" speed="13.890000" pos="69.450000" lane="AB_0" slope="0.000000" acceleration="0.000000"/>
        <vehicle id="v11" x="55.560000" y="-1.600000" angle="90.000000" type="car" speed="13.890000" pos="55.560000" lane="AB_1" slope="0.000000" acceleration="0.000000"/>
        <vehicle id="v12" x="41.670000" y="-4.800000" angle="90.000000" type="car" speed="13.890000" pos="41.670000" lane="AB_0" slope="0.000000" acceleration="0.000000"/>
        <vehicle id="v13" x="27.780000" y="-1.600000" angle="90.000000" type="car" speed="13.890000" pos="27.780000" lane="AB_1" slope="0.000000" acceleration="0.000000"/>
        <vehicle id="v14" x="13.890000" y="-4.800000" angle="90.000000" type="car" speed="13.890000" pos="13.890000" lane="AB_0" slope="0.000000" acceleration="0.000000"/>
        <vehicle id="v15" x="0.000000" y="-1.600000" angle="90.000000" type="car" speed="13.890000" pos="0.000000" lane="AB_1" slope="0.000000" acceleration="0.000000"/>
        <vehicle id="v2" x="180.570000" y="-4.800000" angle="90.000000" type="car" speed="13.890000" pos="180.570000" lane="AB_0" slope="0.000000" acceleration="0.000000"/>
        <vehicle id="v3" x="166.680000" y="-1.600000" angle="90.000000" type="car" speed="13.890000" pos="166.680000" lane="AB_1" slope="0.000000" acceleration="0.000000"/>
        <vehicle id="v4" x="152.790000" y="-4.800000" angle="90.000000" type="car" speed="13.890000" pos="152.790000" lane="AB_0" slope="0.000000" acceleration="0.000000"/>
        <vehicle id="v5" x="138.900000" y="-1.600000" angle="90.000000" type="car" speed="13.890000" pos="138.900000" lane="AB_1" slope="0.000000" acceleration="0.000000"/>
        <vehicle id="v6" x="125.010000" y="-4.800000" angle="90.000000" type="car" speed="13.890000" pos="125.010000" lane="AB_0" slope="0.000000" acceleration="0.000000"/>
        <vehicle id="v7" x="111.120000" y="-1.600000" angle="90.000000" type="car" speed="13.890000" pos="111.120000" lane="AB_1" slope="0.000000" acceleration="0.000000"/>
        <vehicle id="v8" x="97.230000" y="-4.800000" angle="90.000000" type="car" speed="13.890000" pos="97.230000" lane="AB_0" slope="0.000000" acceleration="0.000000"/>
        <vehicle id="v9" x="83.340000" y="-1.600000" angle="90.000000" type="car" speed="13.890000" pos="83.340000" lane="AB_1" slope="0.000000" acceleration="0.000000"/>
    </timestep>
    <timestep time="16.000">
        <vehicle id="v0" x="222.240000" y="-4.800000" angle="90.000000" type="car" speed="13.890000" pos="222.240000" lane="AB_0" slope="0.000000" acceleration="0.000000"/>
        <vehicle id="v1" x="208.350000" y="-1.600000" angle="90.000000" type="car" speed="13.890000" pos="208.350000" lane="AB_1" slope="0.000000" acceleration="0.000000"/>
        <vehicle id="v10" x="83.340000" y="-4.800000" angle="90.000000" type="car" speed="13.890000" pos="83.340000" lane="AB_0" slope="0.000000" acceleration="0.000000"/>
        <vehicle id="v11" x="69.450000" y="-1.600000" angle="90.000000" type="car" speed="13.890000" pos="69.450000" lane="AB_1" slope="0.000000" acceleration="0.000000"/>
        <vehicle id="v12" x="55.560000" y="-4.800000" angle="90.000000" type="car" speed="13.890000" pos="55.560000" lane="AB_0" slope="0.000000" acceleration="0.000000"/>
        <vehicle id="v13" x="41.670000" y="-1.600000" angle="90.000000" type="car" speed="13.890000" pos="41.670000" lane="AB_1" slope="0.000000" acceleration="0.000000"/>
        <vehicle id="v14" x="27.780000" y="-4.800000" angle="90.000000" type="car" speed="13.890000" pos="27.780000" lane="AB_0" slope="0.000000" acceleration="0.000000"/>
        <vehicle id="v15" x="13.890000" y="-1.600000" angle="90.000000" type="car" speed="13.890000" pos="13.890000" lane="AB_1" slope="0.000000" acceleration="0.000000"/>
        <vehicle id="v16" x="0.000000" y="-4.800000" angle="90.000000" type="car" speed="13.890000" pos="0.000000" lane="AB_0" slope="0.000000" acceleration="0.000000"/>
        <vehicle id="v2" x="194.460000" y="-4.800000" angle="90.000000" type="car" speed="13.890000" pos="194.460000" lane="AB_0" slope="0.000000" acceleration="0.000000"/>
        <vehicle id="v3" x="180.570000" y="-1.600000" angle="90.000000" type="car" speed="13.890000" pos="180.570000" lane="AB_1" slope="0.000000" acceleration="0.000000"/>
        <vehicle id="v4" x="166.680000" y="-4.800000" angle="90.000000" type="car" speed="13.890000" pos="166.680000" lane="AB_0" slope="0.000000" acceleration="0.000000"/>
        <vehicle id="v5" x="152.790000" y="-1.600000" angle="90.000000" type="car" speed="13.890000" pos="152.790000" lane="AB_1" slope="0.000000" acceleration="0.000000"/>
        <vehicle id="v6" x="138.900000" y="-4.800000" angle="90.000000" type="car" speed="13.890000" pos="138.900000" lane="AB_0" slope="0.000000" acceleration="0.000000"/>
        <vehicle id="v7" x="125.010000" y="-1.600000" angle="90.000000" type="car" speed="13.890000" pos="125.010000" lane="AB_1" slope="0.000000" acceleration="0.000000"/>
        <vehicle id="v8" x="111.120000" y="-4.800000" angle="90.000000" type="car" speed="13.890000" pos="111.120000" lane="AB_0" slope="0.000000" acceleration="0.000000"/>
        <vehicle id="v9" x="97.230000" y="-1.600000" angle="90.000000" type="car" speed="13.890000" pos="97.230000" lane="AB_1" slope="0.000000" acceleration="0.000000"/>
    </timestep>
    <timestep time="17.000">
        <vehicle id="v0" x="236.130000" y="-4.800000" angle="90.000000" type="car" speed="13.890000" pos="236.130000" lane="AB_0" slope="0.000000" acceleration="0.000000"/>
        <vehicle id="v1" x="222.240000" y="-1.600000" angle="90.000000" type="car" speed="13.890000" pos="222.240000" lane="AB_1" slope="0.000000" acceleration="0.000000"/>
        <vehicle id="v10" x="97.230000" y="-4.800000" angle="90.000000" type="car" speed="13.890000" pos="97.230000" lane="AB_0" slope="0.000000" acceleration="0.000000"/>
        <vehicle id="v11" x="83.340000" y="-1.600000" angle="90.000000" type="car" speed="13.890000" pos="83.340000" lane="AB_1" slope="0.000000" acceleration="0.000000"/>
        <vehicle id="v12" x="69.450000" y="-4.800000" angle="90.000000" type="car" speed="13.890000" pos="69.450000" lane="AB_0" slope="0.000000" acceleration="0.000000"/>
        <vehicle id="v13" x="55.560000" y="-1.600000" angle="90.000000" type="car" speed="13.890000" pos="55.560000" lane="AB_1" slope="0.000000" acceleration="0.000000"/>
        <vehicle id="v14" x="41.670000" y="-4.800000" angle="90.000000" type="car" speed="13.890000" pos="41.670000" lane="AB_0" slope="0.000000" acceleration="0.000000"/>
        <vehicle id="v15" x="27.780000" y="-1.600000" angle="90.000000" type="car" speed="13.890000" pos="27.780000" lane="AB_1" slope="0.000000" acceleration="0.000000"/>
        <vehicle id="v16" x="13.890000" y="-4.800000" angle="90.000000" type="car" speed="13.890000" pos="13.890000" lane="AB_0" slope="0.000000" acceleration="0.000000"/>
        <vehicle id="v17" x="0.000000" y="-1.600000" angle="90.000000" type="car" speed="13.890000" pos="0.000000" lane="AB_1" slope="0.000000" acceleration="0.000000"/>