<?xml version="1.0" encoding="UTF-8"?>

<!-- generated on 2026-07-08 11:26:16 by Eclipse SUMO sumo Version 1.20.0
<configuration xmlns:xsi="http://www.w3.org/2001/XMLSchema-instance" xsi:noNamespaceSchemaLocation="http://sumo.dlr.de/xsd/sumoConfiguration.xsd">

    <input>
        <net-file value="net.net.xml"/>
        <route-files value="rou.rou.xml"/>
    </input>

    <output>
        <precision value="6"/>
        <fcd-output value="golden.fcd.xml"/>
        <fcd-output.acceleration value="true"/>
        <save-state.times value="1"/>
        <save-state.files value="golden.state.xml"/>
    </output>

    <time>
        <begin value="0"/>
        <end value="60"/>
        <step-length value="1"/>
    </time>

    <processing>
        <step-method.ballistic value="false"/>
        <collision.action value="none"/>
        <time-to-teleport value="-1"/>
        <lanechange.duration value="0"/>
        <default.action-step-length value="1"/>
        <default.speeddev value="0"/>
    </processing>

    <report>
        <no-step-log value="true"/>
    </report>

    <random_number>
        <seed value="42"/>
    </random_number>

</configuration>
-->

<fcd-export xmlns:xsi="http://www.w3.org/2001/XMLSchema-instance" xsi:noNamespaceSchemaLocation="http://sumo.dlr.de/xsd/fcd_file.xsd">
    <timestep time="0.000">
        <vehicle id="vWest" x="0.000000" y="198.400000" angle="90.000000" type="car" speed="13.890000" pos="0.000000" lane="WInRW_0" slope="0.000000" acceleration="0.000000"/>
    </timestep>
    <timestep time="1.000">
        <vehicle id="vWest" x="13.890000" y="198.400000" angle="90.000000" type="car" speed="13.890000" pos="13.890000" lane="WInRW_0" slope="0.000000" acceleration="0.000000"/>
    </timestep>
    <timestep time="2.000">
        <vehicle id="vWest" x="27.780000" y="198.400000" angle="90.000000" type="car" speed="13.890000" pos="27.780000" lane="WInRW_0" slope="0.000000" acceleration="0.000000"/>
    </timestep>
    <timestep time="3.000">
        <vehicle id="vWest" x="41.670000" y="198.400000" angle="90.000000" type="car" speed="13.890000" pos="41.670000" lane="WInRW_0" slope="0.000000" acceleration="0.000000"/>
    </timestep>
    <timestep time="4.000">
        <vehicle id="vWest" x="55.560000" y="198.400000" angle="90.000000" type="car" speed="13.890000" pos="55.560000" lane="WInRW_0" slope="0.000000" acceleration="0.000000"/>
    </timestep>
    <timestep time="5.000">
        <vehicle id="vWest" x="69.450000" y="198.400000" angle="90.000000" type="car" speed="13.890000" pos="69.450000" lane="WInRW_0" slope="0.000000" acceleration="0.000000"/>
    </timestep>
    <timestep time="6.000">
        <vehicle id="vWest" x="83.340000" y="198.400000" angle="90.000000" type="car" speed="13.890000" pos="83.340000" lane="WInRW_0" slope="0.000000" acceleration="0.000000"/>
    </timestep>
    <timestep time="7.000">
        <vehicle id="vWest" x="97.230000" y="198.400000" angle="90.000000" type="car" speed="13.890000" pos="97.230000" lane="WInRW_0" slope="0.000000" acceleration="0.000000"/>
    </timestep>
    <timestep time="8.000">
        <vehicle id="vWest" x="111.120000" y="198.400000" angle="90.000000" type="car" speed="13.890000" pos="111.120000" lane="WInRW_0" slope="0.000000" acceleration="0.000000"/>
    </timestep>
    <timestep time="9.000">
        <vehicle id="vWest" x="125.010000" y="198.400000" angle="90.000000" type="car" speed="13.890000" pos="125.010000" lane="WInRW_0" slope="0.000000" acceleration="0.000000"/>
    </timestep>
    <timestep time="10.000">
        <vehicle id="vWest" x="138.900000" y="198.400000" angle="90.000000" type="car" speed="13.890000" pos="138.900000" lane="WInRW_0" slope="0.000000" acceleration="0.000000"/>
    </timestep>
    <timestep time="11.000">
        <vehicle id="vWest" x="152.790000" y="198.400000" angle="90.000000" type="car" speed="13.890000" pos="152.790000" lane="WInRW_0" slope="0.000000" acceleration="0.000000"/>
    </timestep>
    <timestep time="12.000">
        <vehicle id="vWest" x="164.266333" y="198.400000" angle="90.000000" type="car" speed="11.476333" pos="164.266333" lane="WInRW_0" slope="0.000000" acceleration="-2.413667"/>
    </timestep>
    <timestep time="13.000">
        <vehicle id="vWest" x="171.242667" y="198.400000" angle="90.000000" type="car" speed="6.976333" pos="171.242667" lane="WInRW_0" slope="0.000000" acceleration="-4.500000"/>
    </timestep>
    <timestep time="14.000">
        <vehicle id="vWest" x="180.186023" y="197.294265" angle="102.192688" type="car" speed="9.110000" pos="6.532667" lane=":RW_1_0" slope="0.000000" acceleration="2.133667"/>
    </timestep>
    <timestep time="15.000">
        <vehicle id="vWest" x="186.192304" y="191.547696" angle="135.000000" type="car" speed="8.330000" pos="7.372667" lane="RWtoRS_0" slope="0.000000" acceleration="-0.780000"/>
    </timestep>
    <timestep time="16.000">
        <vehicle id="vWest" x="192.081420" y="185.658580" angle="135.000000" type="car" speed="8.330000" pos="15.702667" lane="RWtoRS_0" slope="0.000000" acceleration="0.000000"/>
    </timestep>
    <timestep time="17.000">
        <vehicle id="vWest" x="197.700000" y="180.040000" angle="135.000000" type="car" speed="7.947333" pos="23.650000" lane="RWtoRS_0" slope="0.000000" acceleration="-0.382667"/>
    </timestep>
    <timestep time="18.000">
        <vehicle id="vWest" x="202.637419" y="180.485574" angle="80.251178" type="car" speed="5.580000" pos="5.580000" lane=":RS_1_0" slope="0.000000" acceleration="-2.367333"/>
    </timestep>
    <timestep time="19.000">
        <vehicle id="vWest" x="206.633548" y="184.373548" angle="45.224794" type="car" speed="5.580000" pos="4.800000" lane="RStoRE_0" slope="0.000000" acceleration="0.000000"/>
    </timestep>
    <timestep time="20.000">
        <vehicle id="vWest" x="212.416720" y="190.156720" angle="45.000000" type="car" speed="8.180000" pos="12.980000" lane="RStoRE_0" slope="0.000000" acceleration="2.600000"/>
    </timestep>
    <timestep time="21.000">
        <vehicle id="vWest" x="218.305941" y="196.045941" angle="45.000000" type="car" speed="8.330000" pos="21.310000" lane="RStoRE_0" slope="0.000000" acceleration="0.150000"/>
    </timestep>
    <timestep time="22.000">
        <vehicle id="vWest" x="226.010195" y="198.393235" angle="83.197936" type="car" speed="8.330000" pos="7.320000" lane=":RE_0_0" slope="0.000000" acceleration="0.000000"/>
    </timestep>
    <timestep time="23.000">
        <vehicle id="vWest" x="235.120000" y="198.400000" angle="90.000000" type="car" speed="9.110000" pos="8.940000" lane="REEOut_0" slope="0.000000" acceleration="0.780000"/>
    </timestep>
    <timestep time="24.000">
        <vehicle id="vWest" x="246.830000" y="198.400000" angle="90.000000" type="car" speed="11.710000" pos="20.650000" lane="REEOut_0" slope="0.000000" acceleration="2.600000"/>
    </timestep>
    <timestep time="25.000">
        <vehicle id="vWest" x="260.720000" y="198.400000" angle="90.000000" type="car" speed="13.890000" pos="34.540000" lane="REEOut_0" slope="0.000000" acceleration="2.180000"/>
    </timestep>
    <timestep time="26.000">
        <vehicle id="vWest" x="274.610000" y="198.400000" angle="90.000000" type="car" speed="13.890000" pos="48.430000" lane="REEOut_0" slope="0.000000" acceleration="0.000000"/>
    </timestep>
    <timestep time="27.000">
        <vehicle id="vWest" x="288.500000" y="198.400000" angle="90.000000" type="car" speed="13.890000" pos="62.320000" lane="REEOut_0" slope="0.000000" acceleration="0.000000"/>
    </timestep>
    <timestep time="28.000">
        <vehicle id="vWest" x="302.390000" y="198.400000" angle="90.000000" type="car" speed="13.890000" pos="76.210000" lane="REEOut_0" slope="0.000000" acceleration="0.000000"/>
    </timestep>
    <timestep time="29.000">
        <vehicle id="vWest" x="316.280000" y="198.400000" angle="90.000000" type="car" speed="13.890000" pos="90.100000" lane="REEOut_0" slope="0.000000" acceleration="0.000000"/>
    </timestep>
    <timestep time="30.000">
        <vehicle id="vWest" x="330.170000" y="198.400000" angle="90.000000" type="car" speed="13.890000" pos="103.990000" lane="REEOut_0" slope="0.000000" acceleration="0.000000"/>
    </timestep>
    <timestep time="31.000">
        <vehicle id="vWest" x="344.060000" y="198.400000" angle="90.000000" type="car" speed="13.890000" pos="117.880000" lane="REEOut_0" slope="0.000000" acceleration="0.000000"/>
    </timestep>
    <timestep time="32.000">
        <vehicle id="vWest" x="357.950000" y="198.400000" angle="90.000000" type="car" speed="13.890000" pos="131.770000" lane="REEOut_0" slope="0.000000" acceleration="0.000000"/>
    </timestep>
    <timestep time="33.000">
        <vehicle id="vWest" x="371.840000" y="198.400000" angle="90.000000" type="car" speed="13.890000" pos="145.660000" lane="REEOut_0" slope="0.000000" acceleration="0.000000"/>
    </timestep>
    <timestep time="34.000">
        <vehicle id="vWest" x="385.730000" y="198.400000" angle="90.000000" type="car" speed="13.890000" pos="159.550000" lane="REEOut_0" slope="0.000000" acceleration="0.000000"/>
    </timestep>
    <timestep time="35.000">
        <vehicle id="vWest" x="399.620000" y="198.400000" angle="90.000000" type="car" speed="13.890000" pos="173.440000" lane="REEOut_0" slope="0.000000" acceleration="0.000000"/>
    </timestep>
    <timestep time="36.000"/>
    <timestep time="37.000"/>
    <timestep time="38.000"/>
    <timestep time="39.000"/>
    <timestep time="40.000"/>
    <timestep time="41.000"/>
    <timestep time="42.000"/>
    <timestep time="43.000"/>
    <timestep time="44.000"/>
    <timestep time="45.000"/>
    <timestep time="46.000"/>
    <timestep time="47.000"/>
    <timestep time="48.000"/>
    <timestep time="49.000"/>
    <timestep time="50.000"/>
    <timestep time="51.000"/>
    <timestep time="52.000"/>
    <timestep time="53.000"/>
    <timestep time="54.000"/>
    <timestep time="55.000"/>
    <timestep time="56.000"/>
    <timestep time="57.000"/>
    <timestep time="58.000"/>
    <timestep time="59.000"/>
</fcd-export>
