<?xml version="1.0" encoding="UTF-8"?>

<!-- generated on 2026-07-18 16:48:10 by Eclipse SUMO sumo Version 1.20.0
<configuration xmlns:xsi="http://www.w3.org/2001/XMLSchema-instance" xsi:noNamespaceSchemaLocation="http://sumo.dlr.de/xsd/sumoConfiguration.xsd">

    <input>
        <net-file value="net.net.xml"/>
        <route-files value="rou.rou.xml"/>
        <additional-files value="extra.add.xml"/>
    </input>

    <output>
        <precision value="6"/>
        <fcd-output value="golden.fcd.xml"/>
        <fcd-output.acceleration value="true"/>
        <summary-output value="golden.summary.xml"/>
        <statistic-output value="golden.statistic.xml"/>
        <save-state.times value="1"/>
        <save-state.files value="golden.state.xml"/>
    </output>

    <time>
        <begin value="0"/>
        <end value="220"/>
        <step-length value="1"/>
    </time>

    <processing>
        <step-method.ballistic value="false"/>
        <collision.action value="none"/>
        <time-to-teleport value="60"/>
        <lanechange.duration value="0"/>
        <default.action-step-length value="1"/>
        <default.speeddev value="0"/>
    </processing>

    <report>
        <no-step-log value="true"/>
    </report>

    <random_number>
        <seed value="42"/>
    </random_number>

</configuration>
-->

<fcd-export xmlns:xsi="http://www.w3.org/2001/XMLSchema-instance" xsi:noNamespaceSchemaLocation="http://sumo.dlr.de/xsd/fcd_file.xsd">
    <timestep time="0.000">
        <vehicle id="parkStay" x="0.000000" y="148.400000" angle="90.000000" type="car" speed="0.000000" pos="0.000000" lane="WJ_0" slope="0.000000" acceleration="0.000000"/>
    </timestep>
    <timestep time="1.000">
        <vehicle id="cross1" x="198.400000" y="300.000000" angle="180.000000" type="car" speed="0.000000" pos="0.000000" lane="NJ_0" slope="0.000000" acceleration="0.000000"/>
        <vehicle id="parkStay" x="2.600000" y="148.400000" angle="90.000000" type="car" speed="2.600000" pos="2.600000" lane="WJ_0" slope="0.000000" acceleration="2.600000"/>
    </timestep>
    <timestep time="2.000">
        <vehicle id="cross1" x="198.400000" y="297.400000" angle="180.000000" type="car" speed="2.600000" pos="2.600000" lane="NJ_0" slope="0.000000" acceleration="2.600000"/>
        <vehicle id="parkStay" x="7.800000" y="148.400000" angle="90.000000" type="car" speed="5.200000" pos="7.800000" lane="WJ_0" slope="0.000000" acceleration="2.600000"/>
    </timestep>
    <timestep time="3.000">
        <vehicle id="cross1" x="198.400000" y="292.200000" angle="180.000000" type="car" speed="5.200000" pos="7.800000" lane="NJ_0" slope="0.000000" acceleration="2.600000"/>
        <vehicle id="parkStay" x="15.600000" y="148.400000" angle="90.000000" type="car" speed="7.800000" pos="15.600000" lane="WJ_0" slope="0.000000" acceleration="2.600000"/>
    </timestep>
    <timestep time="4.000">
        <vehicle id="cross1" x="198.400000" y="284.400000" angle="180.000000" type="car" speed="7.800000" pos="15.600000" lane="NJ_0" slope="0.000000" acceleration="2.600000"/>
        <vehicle id="parkStay" x="26.000000" y="148.400000" angle="90.000000" type="car" speed="10.400000" pos="26.000000" lane="WJ_0" slope="0.000000" acceleration="2.600000"/>
    </timestep>
    <timestep time="5.000">
        <vehicle id="cross1" x="198.400000" y="274.000000" angle="180.000000" type="car" speed="10.400000" pos="26.000000" lane="NJ_0" slope="0.000000" acceleration="2.600000"/>
        <vehicle id="parkStay" x="39.000000" y="148.400000" angle="90.000000" type="car" speed="13.000000" pos="39.000000" lane="WJ_0" slope="0.000000" acceleration="2.600000"/>
    </timestep>
    <timestep time="6.000">
        <vehicle id="cross1" x="198.400000" y="261.000000" angle="180.000000" type="car" speed="13.000000" pos="39.000000" lane="NJ_0" slope="0.000000" acceleration="2.600000"/>
        <vehicle id="parkStay" x="52.890000" y="148.400000" angle="90.000000" type="car" speed="13.890000" pos="52.890000" lane="WJ_0" slope="0.000000" acceleration="0.890000"/>
        <vehicle id="through1" x="0.000000" y="148.400000" angle="90.000000" type="car" speed="0.000000" pos="0.000000" lane="WJ_0" slope="0.000000" acceleration="0.000000"/>
    </timestep>
    <timestep time="7.000">
        <vehicle id="cross1" x="198.400000" y="247.110000" angle="180.000000" type="car" speed="13.890000" pos="52.890000" lane="NJ_0" slope="0.000000" acceleration="0.890000"/>
        <vehicle id="parkStay" x="66.780000" y="148.400000" angle="90.000000" type="car" speed="13.890000" pos="66.780000" lane="WJ_0" slope="0.000000" acceleration="0.000000"/>
        <vehicle id="through1" x="2.600000" y="148.400000" angle="90.000000" type="car" speed="2.600000" pos="2.600000" lane="WJ_0" slope="0.000000" acceleration="2.600000"/>
    </timestep>
    <timestep time="8.000">
        <vehicle id="cross1" x="198.400000" y="233.220000" angle="180.000000" type="car" speed="13.890000" pos="66.780000" lane="NJ_0" slope="0.000000" acceleration="0.000000"/>
        <vehicle id="parkStay" x="80.670000" y="148.400000" angle="90.000000" type="car" speed="13.890000" pos="80.670000" lane="WJ_0" slope="0.000000" acceleration="0.000000"/>
        <vehicle id="through1" x="7.800000" y="148.400000" angle="90.000000" type="car" speed="5.200000" pos="7.800000" lane="WJ_0" slope="0.000000" acceleration="2.600000"/>
    </timestep>
    <timestep time="9.000">
        <vehicle id="cross1" x="198.400000" y="219.330000" angle="180.000000" type="car" speed="13.890000" pos="80.670000" lane="NJ_0" slope="0.000000" acceleration="0.000000"/>
        <vehicle id="parkStay" x="94.560000" y="148.400000" angle="90.000000" type="car" speed="13.890000" pos="94.560000" lane="WJ_0" slope="0.000000" acceleration="0.000000"/>
        <vehicle id="through1" x="15.600000" y="148.400000" angle="90.000000" type="car" speed="7.800000" pos="15.600000" lane="WJ_0" slope="0.000000" acceleration="2.600000"/>
    </timestep>
    <timestep time="10.000">
        <vehicle id="cross1" x="198.400000" y="205.440000" angle="180.000000" type="car" speed="13.890000" pos="94.560000" lane="NJ_0" slope="0.000000" acceleration="0.000000"/>
        <vehicle id="parkStay" x="108.450000" y="148.400000" angle="90.000000" type="car" speed="13.890000" pos="108.450000" lane="WJ_0" slope="0.000000" acceleration="0.000000"/>
        <vehicle id="through1" x="26.000000" y="148.400000" angle="90.000000" type="car" speed="10.400000" pos="26.000000" lane="WJ_0" slope="0.000000" acceleration="2.600000"/>
    </timestep>
    <timestep time="11.000">
        <vehicle id="cross1" x="198.400000" y="191.550000" angle="180.000000" type="car" speed="13.890000" pos="108.450000" lane="NJ_0" slope="0.000000" acceleration="0.000000"/>
        <vehicle id="parkStay" x="122.340000" y="148.400000" angle="90.000000" type="car" speed="13.890000" pos="122.340000" lane="WJ_0" slope="0.000000" acceleration="0.000000"/>
        <vehicle id="through1" x="39.000000" y="148.400000" angle="90.000000" type="car" speed="13.000000" pos="39.000000" lane="WJ_0" slope="0.000000" acceleration="2.600000"/>
    </timestep>
    <timestep time="12.000">
        <vehicle id="cross1" x="198.400000" y="177.660000" angle="180.000000" type="car" speed="13.890000" pos="122.340000" lane="NJ_0" slope="0.000000" acceleration="0.000000"/>
        <vehicle id="parkStay" x="136.230000" y="148.400000" angle="90.000000" type="car" speed="13.890000" pos="136.230000" lane="WJ_0" slope="0.000000" acceleration="0.000000"/>
        <vehicle id="through1" x="52.890000" y="148.400000" angle="90.000000" type="car" speed="13.890000" pos="52.890000" lane="WJ_0" slope="0.000000" acceleration="0.890000"/>
        <vehicle id="through2" x="0.000000" y="148.400000" angle="90.000000" type="car" speed="0.000000" pos="0.000000" lane="WJ_0" slope="0.000000" acceleration="0.000000"/>
    </timestep>
    <timestep time="13.000">
        <vehicle id="cross1" x="198.400000" y="165.307000" angle="180.000000" type="car" speed="12.353000" pos="134.693000" lane="NJ_0" slope="0.000000" acceleration="-1.537000"/>
        <vehicle id="parkStay" x="150.120000" y="148.400000" angle="90.000000" type="car" speed="13.890000" pos="150.120000" lane="WJ_0" slope="0.000000" acceleration="0.000000"/>
        <vehicle id="through1" x="66.780000" y="148.400000" angle="90.000000" type="car" speed="13.890000" pos="66.780000" lane="WJ_0" slope="0.000000" acceleration="0.000000"/>
        <vehicle id="through2" x="2.600000" y="148.400000" angle="90.000000" type="car" speed="2.600000" pos="2.600000" lane="WJ_0" slope="0.000000" acceleration="2.600000"/>
    </timestep>
    <timestep time="14.000">
        <vehicle id="cross1" x="198.400000" y="157.454000" angle="180.000000" type="car" speed="7.853000" pos="142.546000" lane="NJ_0" slope="0.000000" acceleration="-4.500000"/>
        <vehicle id="parkStay" x="164.010000" y="148.400000" angle="90.000000" type="car" speed="13.890000" pos="164.010000" lane="WJ_0" slope="0.000000" acceleration="0.000000"/>
        <vehicle id="through1" x="80.670000" y="148.400000" angle="90.000000" type="car" speed="13.890000" pos="80.670000" lane="WJ_0" slope="0.000000" acceleration="0.000000"/>
        <vehicle id="through2" x="7.800000" y="148.400000" angle="90.000000" type="car" speed="5.200000" pos="7.800000" lane="WJ_0" slope="0.000000" acceleration="2.600000"/>
    </timestep>
    <timestep time="15.000">
        <vehicle id="cross1" x="198.400000" y="154.101000" angle="180.000000" type="car" speed="3.353000" pos="145.899000" lane="NJ_0" slope="0.000000" acceleration="-4.500000"/>
        <vehicle id="parkStay" x="177.900000" y="148.400000" angle="90.000000" type="car" speed="13.890000" pos="177.900000" lane="WJ_0" slope="0.000000" acceleration="0.000000"/>
        <vehicle id="through1" x="94.560000" y="148.400000" angle="90.000000" type="car" speed="13.890000" pos="94.560000" lane="WJ_0" slope="0.000000" acceleration="0.000000"/>
        <vehicle id="through2" x="15.600000" y="148.400000" angle="90.000000" type="car" speed="7.800000" pos="15.600000" lane="WJ_0" slope="0.000000" acceleration="2.600000"/>
    </timestep>
    <timestep time="16.000">
        <vehicle id="cross1" x="198.400000" y="154.101000" angle="180.000000" type="car" speed="0.000000" pos="145.899000" lane="NJ_0" slope="0.000000" acceleration="-3.353000"/>
        <vehicle id="parkStay" x="191.790000" y="148.400000" angle="90.000000" type="car" speed="13.890000" pos="191.790000" lane="WJ_0" slope="0.000000" acceleration="0.000000"/>
        <vehicle id="through1" x="108.450000" y="148.400000" angle="90.000000" type="car" speed="13.890000" pos="108.450000" lane="WJ_0" slope="0.000000" acceleration="0.000000"/>
        <vehicle id="through2" x="26.000000" y="148.400000" angle="90.000000" type="car" speed="10.400000" pos="26.000000" lane="WJ_0" slope="0.000000" acceleration="2.600000"/>
    </timestep>
    <timestep time="17.000">
        <vehicle id="cross1" x="198.400000" y="154.101000" angle="180.000000" type="car" speed="0.000000" pos="145.899000" lane="NJ_0" slope="0.000000" acceleration="0.000000"/>
        <vehicle id="parkStay" x="205.680000" y="148.400000" angle="90.000000" type="car" speed="13.890000" pos="1.680000" lane="JE_0" slope="0.000000" acceleration="0.000000"/>
        <vehicle id="through1" x="122.340000" y="148.400000" angle="90.000000" type="car" speed="13.890000" pos="122.340000" lane="WJ_0" slope="0.000000" acceleration="0.000000"/>
        <vehicle id="through2" x="39.000000" y="148.400000" angle="90.000000" type="car" speed="13.000000" pos="39.000000" lane="WJ_0" slope="0.000000" acceleration="2.600000"/>
    </timestep>
    <timestep time="18.000">
        <vehicle id="cross1" x="198.400000" y="151.501000" angle="180.000000" type="car" speed="2.600000" pos="2.499000" lane=":J_0_0" slope="0.000000" acceleration="2.600000"/>
        <vehicle id="parkStay" x="217.953000" y="148.400000" angle="90.000000" type="car" speed="12.273000" pos="13.953000" lane="JE_0" slope="0.000000" acceleration="-1.617000"/>
        <vehicle id="through1" x="136.230000" y="148.400000" angle="90.000000" type="car" speed="13.890000" pos="136.230000" lane="WJ_0" slope="0.000000" acceleration="0.000000"/>
        <vehicle id="through2" x="52.890000" y="148.400000" angle="90.000000" type="car" speed="13.890000" pos="52.890000" lane="WJ_0" slope="0.000000" acceleration="0.890000"/>
        <vehicle id="through3" x="0.000000" y="148.400000" angle="90.000000" type="car" speed="0.000000" pos="0.000000" lane="WJ_0" slope="0.000000" acceleration="0.000000"/>
    </timestep>
    <timestep time="19.000">
        <vehicle id="cross1" x="198.400000" y="146.301000" angle="180.000000" type="car" speed="5.200000" pos="7.699000" lane=":J_0_0" slope="0.000000" acceleration="2.600000"/>
        <vehicle id="parkStay" x="225.726000" y="148.400000" angle="90.000000" type="car" speed="7.773000" pos="21.726000" lane="JE_0" slope="0.000000" acceleration="-4.500000"/>
        <vehicle id="through1" x="150.120000" y="148.400000" angle="90.000000" type="car" speed="13.890000" pos="150.120000" lane="WJ_0" slope="0.000000" acceleration="0.000000"/>
        <vehicle id="through2" x="66.780000" y="148.400000" angle="90.000000" type="car" speed="13.890000" pos="66.780000" lane="WJ_0" slope="0.000000" acceleration="0.000000"/>
        <vehicle id="through3" x="2.600000" y="148.400000" angle="90.000000" type="car" speed="2.600000" pos="2.600000" lane="WJ_0" slope="0.000000" acceleration="2.600000"/>
    </timestep>
    <timestep time="20.000">
        <vehicle id="cross1" x="198.400000" y="138.501000" angle="180.000000" type="car" speed="7.800000" pos="4.299000" lane="JS_0" slope="0.000000" acceleration="2.600000"/>
        <vehicle id="parkStay" x="228.999000" y="148.400000" angle="90.000000" type="car" speed="3.273000" pos="24.999000" lane="JE_0" slope="0.000000" acceleration="-4.500000"/>
        <vehicle id="through1" x="164.010000" y="148.400000" angle="90.000000" type="car" speed="13.890000" pos="164.010000" lane="WJ_0" slope="0.000000" acceleration="0.000000"/>
        <vehicle id="through2" x="80.670000" y="148.400000" angle="90.000000" type="car" speed="13.890000" pos="80.670000" lane="WJ_0" slope="0.000000" acceleration="0.000000"/>
        <vehicle id="through3" x="7.800000" y="148.400000" angle="90.000000" type="car" speed="5.200000" pos="7.800000" lane="WJ_0" slope="0.000000" acceleration="2.600000"/>
    </timestep>
    <timestep time="21.000">
        <vehicle id="cross1" x="198.400000" y="128.101000" angle="180.000000" type="car" speed="10.400000" pos="14.699000" lane="JS_0" slope="0.000000" acceleration="2.600000"/>
        <vehicle id="parkStay" x="229.000000" y="145.200000" angle="90.000000" type="car" speed="0.000000" pos="24.999000" lane="JE_0" slope="0.000000" acceleration="-3.273000"/>
        <vehicle id="through1" x="177.900000" y="148.400000" angle="90.000000" type="car" speed="13.890000" pos="177.900000" lane="WJ_0" slope="0.000000" acceleration="0.000000"/>
        <vehicle id="through2" x="94.560000" y="148.400000" angle="90.000000" type="car" speed="13.890000" pos="94.560000" lane="WJ_0" slope="0.000000" acceleration="0.000000"/>
        <vehicle id="through3" x="15.600000" y="148.400000" angle="90.000000" type="car" speed="7.800000" pos="15.600000" lane="WJ_0" slope="0.000000" acceleration="2.600000"/>
    </timestep>
    <timestep time="22.000">
        <vehicle id="cross1" x="198.400000" y="115.101000" angle="180.000000" type="car" speed="13.000000" pos="27.699000" lane="JS_0" slope="0.000000" acceleration="2.600000"/>
        <vehicle id="parkStay" x="229.000000" y="145.200000" angle="90.000000" type="car" speed="0.000000" pos="24.999000" lane="JE_0" slope="0.000000" acceleration="-0.000000"/>
        <vehicle id="through1" x="191.790000" y="148.400000" angle="90.000000" type="car" speed="13.890000" pos="191.790000" lane="WJ_0" slope="0.000000" acceleration="0.000000"/>
        <vehicle id="through2" x="108.450000" y="148.400000" angle="90.000000" type="car" speed="13.890000" pos="108.450000" lane="WJ_0" slope="0.000000" acceleration="0.000000"/>
        <vehicle id="through3" x="26.000000" y="148.400000" angle="90.000000" type="car" speed="10.400000" pos="26.000000" lane="WJ_0" slope="0.000000" acceleration="2.600000"/>
    </timestep>
    <timestep time="23.000">
        <vehicle id="cross1" x="198.400000" y="101.211000" angle="180.000000" type="car" speed="13.890000" pos="41.589000" lane="JS_0" slope="0.000000" acceleration="0.890000"/>
        <vehicle id="parkStay" x="229.000000" y="145.200000" angle="90.000000" type="car" speed="0.000000" pos="24.999000" lane="JE_0" slope="0.000000" acceleration="0.000000"/>
        <vehicle id="through1" x="205.680000" y="148.400000" angle="90.000000" type="car" speed="13.890000" pos="1.680000" lane="JE_0" slope="0.000000" acceleration="0.000000"/>
        <vehicle id="through2" x="122.340000" y="148.400000" angle="90.000000" type="car" speed="13.890000" pos="122.340000" lane="WJ_0" slope="0.000000" acceleration="0.000000"/>
        <vehicle id="through3" x="39.000000" y="148.400000" angle="90.000000" type="car" speed="13.000000" pos="39.000000" lane="WJ_0" slope="0.000000" acceleration="2.600000"/>
    </timestep>
    <timestep time="24.000">
        <vehicle id="cross1" x="198.400000" y="87.321000" angle="180.000000" type="car" speed="13.890000" pos="55.479000" lane="JS_0" slope="0.000000" acceleration="0.000000"/>
        <vehicle id="parkStay" x="229.000000" y="145.200000" angle="90.000000" type="car" speed="0.000000" pos="24.999000" lane="JE_0" slope="0.000000" acceleration="0.000000"/>
        <vehicle id="through1" x="219.570000" y="148.400000" angle="90.000000" type="car" speed="13.890000" pos="15.570000" lane="JE_0" slope="0.000000" acceleration="0.000000"/>
        <vehicle id="through2" x="136.230000" y="148.400000" angle="90.000000" type="car" speed="13.890000" pos="136.230000" lane="WJ_0" slope="0.000000" acceleration="0.000000"/>
        <vehicle id="through3" x="52.890000" y="148.400000" angle="90.000000" type="car" speed="13.890000" pos="52.890000" lane="WJ_0" slope="0.000000" acceleration="0.890000"/>
        <vehicle id="through4" x="0.000000" y="148.400000" angle="90.000000" type="car" speed="0.000000" pos="0.000000" lane="WJ_0" slope="0.000000" acceleration="0.000000"/>
    </timestep>
    <timestep time="25.000">
        <vehicle id="cross1" x="198.400000" y="73.431000" angle="180.000000" type="car" speed="13.890000" pos="69.369000" lane="JS_0" slope="0.000000" acceleration="0.000000"/>
        <vehicle id="parkStay" x="229.000000" y="145.200000" angle="90.000000" type="car" speed="0.000000" pos="24.999000" lane="JE_0" slope="0.000000" acceleration="0.000000"/>
        <vehicle id="through1" x="233.460000" y="148.400000" angle="90.000000" type="car" speed="13.890000" pos="29.460000" lane="JE_0" slope="0.000000" acceleration="0.000000"/>
        <vehicle id="through2" x="150.120000" y="148.400000" angle="90.000000" type="car" speed="13.890000" pos="150.120000" lane="WJ_0" slope="0.000000" acceleration="0.000000"/>
        <vehicle id="through3" x="66.780000" y="148.400000" angle="90.000000" type="car" speed="13.890000" pos="66.780000" lane="WJ_0" slope="0.000000" acceleration="0.000000"/>
        <vehicle id="through4" x="2.600000" y="148.400000" angle="90.000000" type="car" speed="2.600000" pos="2.600000" lane="WJ_0" slope="0.000000" acceleration="2.600000"/>
    </timestep>
    <timestep time="26.000">
        <vehicle id="cross1" x="198.400000" y="59.541000" angle="180.000000" type="car" speed="13.890000" pos="83.259000" lane="JS_0" slope="0.000000" acceleration="0.000000"/>
        <vehicle id="parkStay" x="229.000000" y="145.200000" angle="90.000000" type="car" speed="0.000000" pos="24.999000" lane="JE_0" slope="0.000000" acceleration="0.000000"/>
        <vehicle id="through1" x="247.350000" y="148.400000" angle="90.000000" type="car" speed="13.890000" pos="43.350000" lane="JE_0" slope="0.000000" acceleration="0.000000"/>
        <vehicle id="through2" x="164.010000" y="148.400000" angle="90.000000" type="car" speed="13.890000" pos="164.010000" lane="WJ_0" slope="0.000000" acceleration="0.000000"/>
        <vehicle id="through3" x="80.670000" y="148.400000" angle="90.000000" type="car" speed="13.890000" pos="80.670000" lane="WJ_0" slope="0.000000" acceleration="0.000000"/>
        <vehicle id="through4" x="7.800000" y="148.400000" angle="90.000000" type="car" speed="5.200000" pos="7.800000" lane="WJ_0" slope="0.000000" acceleration="2.600000"/>
    </timestep>
    <timestep time="27.000">
        <vehicle id="cross1" x="198.400000" y="45.651000" angle="180.000000" type="car" speed="13.890000" pos="97.149000" lane="JS_0" slope="0.000000" acceleration="0.000000"/>
        <vehicle id="parkStay" x="229.000000" y="145.200000" angle="90.000000" type="car" speed="0.000000" pos="24.999000" lane="JE_0" slope="0.000000" acceleration="0.000000"/>
        <vehicle id="through1" x="261.240000" y="148.400000" angle="90.000000" type="car" speed="13.890000" pos="57.240000" lane="JE_0" slope="0.000000" acceleration="0.000000"/>
        <vehicle id="through2" x="177.900000" y="148.400000" angle="90.000000" type="car" speed="13.890000" pos="177.900000" lane="WJ_0" slope="0.000000" acceleration="0.000000"/>
        <vehicle id="through3" x="94.560000" y="148.400000" angle="90.000000" type="car" speed="13.890000" pos="94.560000" lane="WJ_0" slope="0.000000" acceleration="0.000000"/>
        <vehicle id="through4" x="15.600000" y="148.400000" angle="90.000000" type="car" speed="7.800000" pos="15.600000" lane="WJ_0" slope="0.000000" acceleration="2.600000"/>
    </timestep>
    <timestep time="28.000">
        <vehicle id="cross1" x="198.400000" y="31.761000" angle="180.000000" type="car" speed="13.890000" pos="111.039000" lane="JS_0" slope="0.000000" acceleration="0.000000"/>
        <vehicle id="parkStay" x="229.000000" y="145.200000" angle="90.000000" type="car" speed="0.000000" pos="24.999000" lane="JE_0" slope="0.000000" acceleration="0.000000"/>
        <vehicle id="through1" x="275.130000" y="148.400000" angle="90.000000" type="car" speed="13.890000" pos="71.130000" lane="JE_0" slope="0.000000" acceleration="0.000000"/>
        <vehicle id="through2" x="191.790000" y="148.400000" angle="90.000000" type="car" speed="13.890000" pos="191.790000" lane="WJ_0" slope="0.000000" acceleration="0.000000"/>
        <vehicle id="through3" x="108.450000" y="148.400000" angle="90.000000" type="car" speed="13.890000" pos="108.450000" lane="WJ_0" slope="0.000000" acceleration="0.000000"/>
        <vehicle id="through4" x="26.000000" y="148.400000" angle="90.000000" type="car" speed="10.400000" pos="26.000000" lane="WJ_0" slope="0.000000" acceleration="2.600000"/>
    </timestep>
    <timestep time="29.000">
        <vehicle id="cross1" x="198.400000" y="17.871000" angle="180.000000" type="car" speed="13.890000" pos="124.929000" lane="JS_0" slope="0.000000" acceleration="0.000000"/>
        <vehicle id="parkStay" x="229.000000" y="145.200000" angle="90.000000" type="car" speed="0.000000" pos="24.999000" lane="JE_0" slope="0.000000" acceleration="0.000000"/>
        <vehicle id="through1" x="289.020000" y="148.400000" angle="90.000000" type="car" speed="13.890000" pos="85.020000" lane="JE_0" slope="0.000000" acceleration="0.000000"/>
        <vehicle id="through2" x="205.680000" y="148.400000" angle="90.000000" type="car" speed="13.890000" pos="1.680000" lane="JE_0" slope="0.000000" acceleration="0.000000"/>
        <vehicle id="through3" x="122.340000" y="148.400000" angle="90.000000" type="car" speed="13.890000" pos="122.340000" lane="WJ_0" slope="0.000000" acceleration="0.000000"/>
        <vehicle id="through4" x="39.000000" y="148.400000" angle="90.000000" type="car" speed="13.000000" pos="39.000000" lane="WJ_0" slope="0.000000" acceleration="2.600000"/>
    </timestep>
    <timestep time="30.000">
        <vehicle id="cross1" x="198.400000" y="3.981000" angle="180.000000" type="car" speed="13.890000" pos="138.819000" lane="JS_0" slope="0.000000" acceleration="0.000000"/>
        <vehicle id="parkStay" x="229.000000" y="145.200000" angle="90.000000" type="car" speed="0.000000" pos="24.999000" lane="JE_0" slope="0.000000" acceleration="0.000000"/>
        <vehicle id="through1" x="302.910000" y="148.400000" angle="90.000000" type="car" speed="13.890000" pos="98.910000" lane="JE_0" slope="0.000000" acceleration="0.000000"/>
        <vehicle id="through2" x="219.570000" y="148.400000" angle="90.000000" type="car" speed="13.890000" pos="15.570000" lane="JE_0" slope="0.000000" acceleration="0.000000"/>
        <vehicle id="through3" x="136.230000" y="148.400000" angle="90.000000" type="car" speed="13.890000" pos="136.230000" lane="WJ_0" slope="0.000000" acceleration="0.000000"/>
        <vehicle id="through4" x="52.890000" y="148.400000" angle="90.000000" type="car" speed="13.890000" pos="52.890000" lane="WJ_0" slope="0.000000" acceleration="0.890000"/>
        <vehicle id="through5" x="0.000000" y="148.400000" angle="90.000000" type="car" speed="0.000000" pos="0.000000" lane="WJ_0" slope="0.000000" acceleration="0.000000"/>
    </timestep>
    <timestep time="31.000">
        <vehicle id="parkStay" x="229.000000" y="145.200000" angle="90.000000" type="car" speed="0.000000" pos="24.999000" lane="JE_0" slope="0.000000" acceleration="0.000000"/>
        <vehicle id="through1" x="316.800000" y="148.400000" angle="90.000000" type="car" speed="13.890000" pos="112.800000" lane="JE_0" slope="0.000000" acceleration="0.000000"/>
        <vehicle id="through2" x="233.460000" y="148.400000" angle="90.000000" type="car" speed="13.890000" pos="29.460000" lane="JE_0" slope="0.000000" acceleration="0.000000"/>
        <vehicle id="through3" x="150.120000" y="148.400000" angle="90.000000" type="car" speed="13.890000" pos="150.120000" lane="WJ_0" slope="0.000000" acceleration="0.000000"/>
        <vehicle id="through4" x="66.780000" y="148.400000" angle="90.000000" type="car" speed="13.890000" pos="66.780000" lane="WJ_0" slope="0.000000" acceleration="0.000000"/>
        <vehicle id="through5" x="2.600000" y="148.400000" angle="90.000000" type="car" speed="2.600000" pos="2.600000" lane="WJ_0" slope="0.000000" acceleration="2.600000"/>
    </timestep>
    <timestep time="32.000">
        <vehicle id="parkStay" x="229.000000" y="145.200000" angle="90.000000" type="car" speed="0.000000" pos="24.999000" lane="JE_0" slope="0.000000" acceleration="0.000000"/>
        <vehicle id="through1" x="330.690000" y="148.400000" angle="90.000000" type="car" speed="13.890000" pos="126.690000" lane="JE_0" slope="0.000000" acceleration="0.000000"/>
        <vehicle id="through2" x="247.350000" y="148.400000" angle="90.000000" type="car" speed="13.890000" pos="43.350000" lane="JE_0" slope="0.000000" acceleration="0.000000"/>
        <vehicle id="through3" x="164.010000" y="148.400000" angle="90.000000" type="car" speed="13.890000" pos="164.010000" lane="WJ_0" slope="0.000000" acceleration="0.000000"/>
        <vehicle id="through4" x="80.670000" y="148.400000" angle="90.000000" type="car" speed="13.890000" pos="80.670000" lane="WJ_0" slope="0.000000" acceleration="0.000000"/>
        <vehicle id="through5" x="7.800000" y="148.400000" angle="90.000000" type="car" speed="5.200000" pos="7.800000" lane="WJ_0" slope="0.000000" acceleration="2.600000"/>
    </timestep>
    <timestep time="33.000">
        <vehicle id="parkStay" x="229.000000" y="145.200000" angle="90.000000" type="car" speed="0.000000" pos="24.999000" lane="JE_0" slope="0.000000" acceleration="0.000000"/>
        <vehicle id="through1" x="344.580000" y="148.400000" angle="90.000000" type="car" speed="13.890000" pos="140.580000" lane="JE_0" slope="0.000000" acceleration="0.000000"/>
        <vehicle id="through2" x="261.240000" y="148.400000" angle="90.000000" type="car" speed="13.890000" pos="57.240000" lane="JE_0" slope="0.000000" acceleration="0.000000"/>
        <vehicle id="through3" x="177.900000" y="148.400000" angle="90.000000" type="car" speed="13.890000" pos="177.900000" lane="WJ_0" slope="0.000000" acceleration="0.000000"/>
        <vehicle id="through4" x="94.560000" y="148.400000" angle="90.000000" type="car" speed="13.890000" pos="94.560000" lane="WJ_0" slope="0.000000" acceleration="0.000000"/>
        <vehicle id="through5" x="15.600000" y="148.400000" angle="90.000000" type="car" speed="7.800000" pos="15.600000" lane="WJ_0" slope="0.000000" acceleration="2.600000"/>
    </timestep>
    <timestep time="34.000">
        <vehicle id="parkStay" x="229.000000" y="145.200000" angle="90.000000" type="car" speed="0.000000" pos="24.999000" lane="JE_0" slope="0.000000" acceleration="0.000000"/>
        <vehicle id="through1" x="358.470000" y="148.400000" angle="90.000000" type="car" speed="13.890000" pos="154.470000" lane="JE_0" slope="0.000000" acceleration="0.000000"/>
        <vehicle id="through2" x="275.130000" y="148.400000" angle="90.000000" type="car" speed="13.890000" pos="71.130000" lane="JE_0" slope="0.000000" acceleration="0.000000"/>
        <vehicle id="through3" x="191.790000" y="148.400000" angle="90.000000" type="car" speed="13.890000" pos="191.790000" lane="WJ_0" slope="0.000000" acceleration="0.000000"/>
        <vehicle id="through4" x="108.450000" y="148.400000" angle="90.000000" type="car" speed="13.890000" pos="108.450000" lane="WJ_0" slope="0.000000" acceleration="0.000000"/>
        <vehicle id="through5" x="26.000000" y="148.400000" angle="90.000000" type="car" speed="10.400000" pos="26.000000" lane="WJ_0" slope="0.000000" acceleration="2.600000"/>
    </timestep>
    <timestep time="35.000">
        <vehicle id="parkStay" x="229.000000" y="145.200000" angle="90.000000" type="car" speed="0.000000" pos="24.999000" lane="JE_0" slope="0.000000" acceleration="0.000000"/>