<?xml version="1.0" encoding="UTF-8"?>

<!-- generated on 2026-07-12 13:28:46 by Eclipse SUMO sumo Version 1.20.0
<configuration xmlns:xsi="http://www.w3.org/2001/XMLSchema-instance" xsi:noNamespaceSchemaLocation="http://sumo.dlr.de/xsd/sumoConfiguration.xsd">

    <input>
        <net-file value="net.net.xml"/>
        <route-files value="rou.rou.xml"/>
    </input>

    <output>
        <precision value="6"/>
        <fcd-output value="golden.fcd.xml"/>
        <fcd-output.attributes value="x,y,angle,speed,pos,lane,posLat,acceleration"/>
        <save-state.times value="1"/>
        <save-state.files value="golden.state.xml"/>
    </output>

    <time>
        <begin value="0"/>
        <end value="40"/>
        <step-length value="1"/>
    </time>

    <processing>
        <step-method.ballistic value="false"/>
        <lateral-resolution value="0.8"/>
        <collision.action value="none"/>
        <time-to-teleport value="-1"/>
        <default.action-step-length value="1"/>
        <default.speeddev value="0"/>
    </processing>

    <report>
        <no-step-log value="true"/>
    </report>

    <random_number>
        <seed value="42"/>
    </random_number>

</configuration>
-->

<fcd-export xmlns:xsi="http://www.w3.org/2001/XMLSchema-instance" xsi:noNamespaceSchemaLocation="http://sumo.dlr.de/xsd/fcd_file.xsd">
    <timestep time="0.000">
        <vehicle id="v0" x="30.000000" y="-2.400000" angle="90.000000" speed="0.000000" pos="30.000000" lane="e0_0" acceleration="0.000000" posLat="0.000000"/>
        <vehicle id="v1" x="0.000000" y="-2.400000" angle="90.000000" speed="0.000000" pos="0.000000" lane="e0_0" acceleration="0.000000" posLat="0.000000"/>
    </timestep>
    <timestep time="1.000">
        <vehicle id="v0" x="32.600000" y="-2.400000" angle="90.000000" speed="2.600000" pos="32.600000" lane="e0_0" acceleration="2.600000" posLat="0.000000"/>
        <vehicle id="v1" x="2.600000" y="-2.400000" angle="90.000000" speed="2.600000" pos="2.600000" lane="e0_0" acceleration="2.600000" posLat="0.000000"/>
    </timestep>
    <timestep time="2.000">
        <vehicle id="v0" x="37.600000" y="-2.400000" angle="90.000000" speed="5.000000" pos="37.600000" lane="e0_0" acceleration="2.400000" posLat="0.000000"/>
        <vehicle id="v1" x="7.800000" y="-2.400000" angle="90.000000" speed="5.200000" pos="7.800000" lane="e0_0" acceleration="2.600000" posLat="0.000000"/>
    </timestep>
    <timestep time="3.000">
        <vehicle id="v0" x="42.600000" y="-2.400000" angle="90.000000" speed="5.000000" pos="42.600000" lane="e0_0" acceleration="0.000000" posLat="0.000000"/>
        <vehicle id="v1" x="15.600000" y="-2.400000" angle="90.000000" speed="7.800000" pos="15.600000" lane="e0_0" acceleration="2.600000" posLat="0.000000"/>
    </timestep>
    <timestep time="4.000">
        <vehicle id="v0" x="47.600000" y="-2.400000" angle="90.000000" speed="5.000000" pos="47.600000" lane="e0_0" acceleration="0.000000" posLat="0.000000"/>
        <vehicle id="v1" x="26.000000" y="-2.400000" angle="90.000000" speed="10.400000" pos="26.000000" lane="e0_0" acceleration="2.600000" posLat="0.000000"/>
    </timestep>
    <timestep time="5.000">
        <vehicle id="v0" x="52.600000" y="-2.400000" angle="90.000000" speed="5.000000" pos="52.600000" lane="e0_0" acceleration="0.000000" posLat="0.000000"/>
        <vehicle id="v1" x="35.366333" y="-2.400000" angle="90.000000" speed="9.366333" pos="35.366333" lane="e0_0" acceleration="-1.033667" posLat="0.000000"/>
    </timestep>
    <timestep time="6.000">
        <vehicle id="v0" x="57.600000" y="-2.400000" angle="90.000000" speed="5.000000" pos="57.600000" lane="e0_0" acceleration="0.000000" posLat="0.000000"/>
        <vehicle id="v1" x="42.732667" y="-2.400000" angle="90.000000" speed="7.366333" pos="42.732667" lane="e0_0" acceleration="-2.000000" posLat="0.000000"/>
    </timestep>
    <timestep time="7.000">
        <vehicle id="v0" x="62.600000" y="-2.400000" angle="90.000000" speed="5.000000" pos="62.600000" lane="e0_0" acceleration="0.000000" posLat="0.000000"/>
        <vehicle id="v1" x="48.915833" y="-2.400000" angle="90.000000" speed="6.183167" pos="48.915833" lane="e0_0" acceleration="-1.183167" posLat="0.000000"/>
    </timestep>
    <timestep time="8.000">
        <vehicle id="v0" x="67.600000" y="-2.400000" angle="90.000000" speed="5.000000" pos="67.600000" lane="e0_0" acceleration="0.000000" posLat="0.000000"/>
        <vehicle id="v1" x="54.507417" y="-2.400000" angle="90.000000" speed="5.591583" pos="54.507417" lane="e0_0" acceleration="-0.591583" posLat="0.000000"/>
    </timestep>
    <timestep time="9.000">
        <vehicle id="v0" x="72.600000" y="-2.400000" angle="90.000000" speed="5.000000" pos="72.600000" lane="e0_0" acceleration="0.000000" posLat="0.000000"/>
        <vehicle id="v1" x="59.803208" y="-2.400000" angle="90.000000" speed="5.295792" pos="59.803208" lane="e0_0" acceleration="-0.295792" posLat="0.000000"/>
    </timestep>
    <timestep time="10.000">
        <vehicle id="v0" x="77.600000" y="-2.400000" angle="90.000000" speed="5.000000" pos="77.600000" lane="e0_0" acceleration="0.000000" posLat="0.000000"/>
        <vehicle id="v1" x="64.951104" y="-2.400000" angle="90.000000" speed="5.147896" pos="64.951104" lane="e0_0" acceleration="-0.147896" posLat="0.000000"/>
    </timestep>
    <timestep time="11.000">
        <vehicle id="v0" x="82.600000" y="-2.400000" angle="90.000000" speed="5.000000" pos="82.600000" lane="e0_0" acceleration="0.000000" posLat="0.000000"/>
        <vehicle id="v1" x="70.025052" y="-2.400000" angle="90.000000" speed="5.073948" pos="70.025052" lane="e0_0" acceleration="-0.073948" posLat="0.000000"/>
    </timestep>
    <timestep time="12.000">
        <vehicle id="v0" x="87.600000" y="-2.400000" angle="90.000000" speed="5.000000" pos="87.600000" lane="e0_0" acceleration="0.000000" posLat="0.000000"/>
        <vehicle id="v1" x="75.062026" y="-2.400000" angle="90.000000" speed="5.036974" pos="75.062026" lane="e0_0" acceleration="-0.036974" posLat="0.000000"/>
    </timestep>
    <timestep time="13.000">
        <vehicle id="v0" x="92.600000" y="-2.400000" angle="90.000000" speed="5.000000" pos="92.600000" lane="e0_0" acceleration="0.000000" posLat="0.000000"/>
        <vehicle id="v1" x="80.080513" y="-2.400000" angle="90.000000" speed="5.018487" pos="80.080513" lane="e0_0" acceleration="-0.018487" posLat="0.000000"/>
    </timestep>
    <timestep time="14.000">
        <vehicle id="v0" x="97.600000" y="-2.400000" angle="90.000000" speed="5.000000" pos="97.600000" lane="e0_0" acceleration="0.000000" posLat="0.000000"/>
        <vehicle id="v1" x="85.089757" y="-2.400000" angle="90.000000" speed="5.009243" pos="85.089757" lane="e0_0" acceleration="-0.009243" posLat="0.000000"/>
    </timestep>
    <timestep time="15.000">
        <vehicle id="v0" x="102.600000" y="-2.400000" angle="90.000000" speed="5.000000" pos="102.600000" lane="e0_0" acceleration="0.000000" posLat="0.000000"/>
        <vehicle id="v1" x="90.094378" y="-2.400000" angle="90.000000" speed="5.004622" pos="90.094378" lane="e0_0" acceleration="-0.004622" posLat="0.000000"/>
    </timestep>
    <timestep time="16.000">
        <vehicle id="v0" x="107.600000" y="-2.400000" angle="90.000000" speed="5.000000" pos="107.600000" lane="e0_0" acceleration="0.000000" posLat="0.000000"/>
        <vehicle id="v1" x="95.096689" y="-2.400000" angle="90.000000" speed="5.002311" pos="95.096689" lane="e0_0" acceleration="-0.002311" posLat="0.000000"/>
    </timestep>
    <timestep time="17.000">
        <vehicle id="v0" x="112.600000" y="-2.400000" angle="90.000000" speed="5.000000" pos="112.600000" lane="e0_0" acceleration="0.000000" posLat="0.000000"/>
        <vehicle id="v1" x="100.097845" y="-2.400000" angle="90.000000" speed="5.001155" pos="100.097845" lane="e0_0" acceleration="-0.001155" posLat="0.000000"/>
    </timestep>
    <timestep time="18.000">
        <vehicle id="v0" x="117.600000" y="-2.400000" angle="90.000000" speed="5.000000" pos="117.600000" lane="e0_0" acceleration="0.000000" posLat="0.000000"/>
        <vehicle id="v1" x="105.098422" y="-2.400000" angle="90.000000" speed="5.000578" pos="105.098422" lane="e0_0" acceleration="-0.000578" posLat="0.000000"/>
    </timestep>
    <timestep time="19.000">
        <vehicle id="v0" x="122.600000" y="-2.400000" angle="90.000000" speed="5.000000" pos="122.600000" lane="e0_0" acceleration="0.000000" posLat="0.000000"/>
        <vehicle id="v1" x="110.098711" y="-2.400000" angle="90.000000" speed="5.000289" pos="110.098711" lane="e0_0" acceleration="-0.000289" posLat="0.000000"/>
    </timestep>
    <timestep time="20.000">
        <vehicle id="v0" x="127.600000" y="-2.400000" angle="90.000000" speed="5.000000" pos="127.600000" lane="e0_0" acceleration="0.000000" posLat="0.000000"/>
        <vehicle id="v1" x="115.098856" y="-2.400000" angle="90.000000" speed="5.000144" pos="115.098856" lane="e0_0" acceleration="-0.000144" posLat="0.000000"/>
    </timestep>
    <timestep time="21.000">
        <vehicle id="v0" x="132.600000" y="-2.400000" angle="90.000000" speed="5.000000" pos="132.600000" lane="e0_0" acceleration="0.000000" posLat="0.000000"/>
        <vehicle id="v1" x="120.098928" y="-2.400000" angle="90.000000" speed="5.000072" pos="120.098928" lane="e0_0" acceleration="-0.000072" posLat="0.000000"/>
    </timestep>
    <timestep time="22.000">
        <vehicle id="v0" x="137.600000" y="-2.400000" angle="90.000000" speed="5.000000" pos="137.600000" lane="e0_0" acceleration="0.000000" posLat="0.000000"/>
        <vehicle id="v1" x="125.098964" y="-2.400000" angle="90.000000" speed="5.000036" pos="125.098964" lane="e0_0" acceleration="-0.000036" posLat="0.000000"/>
    </timestep>
    <timestep time="23.000">
        <vehicle id="v0" x="142.600000" y="-2.400000" angle="90.000000" speed="5.000000" pos="142.600000" lane="e0_0" acceleration="0.000000" posLat="0.000000"/>
        <vehicle id="v1" x="130.098982" y="-2.400000" angle="90.000000" speed="5.000018" pos="130.098982" lane="e0_0" acceleration="-0.000018" posLat="0.000000"/>
    </timestep>
    <timestep time="24.000">
        <vehicle id="v0" x="147.600000" y="-2.400000" angle="90.000000" speed="5.000000" pos="147.600000" lane="e0_0" acceleration="0.000000" posLat="0.000000"/>
        <vehicle id="v1" x="135.098991" y="-2.400000" angle="90.000000" speed="5.000009" pos="135.098991" lane="e0_0" acceleration="-0.000009" posLat="0.000000"/>
    </timestep>
    <timestep time="25.000">
        <vehicle id="v0" x="152.600000" y="-2.400000" angle="90.000000" speed="5.000000" pos="152.600000" lane="e0_0" acceleration="0.000000" posLat="0.000000"/>
        <vehicle id="v1" x="140.098995" y="-2.400000" angle="90.000000" speed="5.000005" pos="140.098995" lane="e0_0" acceleration="-0.000005" posLat="0.000000"/>
    </timestep>
    <timestep time="26.000">
        <vehicle id="v0" x="157.600000" y="-2.400000" angle="90.000000" speed="5.000000" pos="157.600000" lane="e0_0" acceleration="0.000000" posLat="0.000000"/>
        <vehicle id="v1" x="145.098998" y="-2.400000" angle="90.000000" speed="5.000002" pos="145.098998" lane="e0_0" acceleration="-0.000002" posLat="0.000000"/>
    </timestep>
    <timestep time="27.000">
        <vehicle id="v0" x="162.600000" y="-2.400000" angle="90.000000" speed="5.000000" pos="162.600000" lane="e0_0" acceleration="0.000000" posLat="0.000000"/>
        <vehicle id="v1" x="150.098999" y="-2.400000" angle="90.000000" speed="5.000001" pos="150.098999" lane="e0_0" acceleration="-0.000001" posLat="0.000000"/>
    </timestep>
    <timestep time="28.000">
        <vehicle id="v0" x="167.600000" y="-2.400000" angle="90.000000" speed="5.000000" pos="167.600000" lane="e0_0" acceleration="0.000000" posLat="0.000000"/>
        <vehicle id="v1" x="155.098999" y="-2.400000" angle="90.000000" speed="5.000001" pos="155.098999" lane="e0_0" acceleration="-0.000001" posLat="0.000000"/>
    </timestep>
    <timestep time="29.000">
        <vehicle id="v0" x="172.600000" y="-2.400000" angle="90.000000" speed="5.000000" pos="172.600000" lane="e0_0" acceleration="0.000000" posLat="0.000000"/>
        <vehicle id="v1" x="160.099000" y="-2.400000" angle="90.000000" speed="5.000000" pos="160.099000" lane="e0_0" acceleration="-0.000000" posLat="0.000000"/>
    </timestep>
    <timestep time="30.000">
        <vehicle id="v0" x="177.600000" y="-2.400000" angle="90.000000" speed="5.000000" pos="177.600000" lane="e0_0" acceleration="0.000000" posLat="0.000000"/>
        <vehicle id="v1" x="165.099000" y="-2.400000" angle="90.000000" speed="5.000000" pos="165.099000" lane="e0_0" acceleration="-0.000000" posLat="0.000000"/>
    </timestep>
    <timestep time="31.000">
        <vehicle id="v0" x="182.600000" y="-2.400000" angle="90.000000" speed="5.000000" pos="182.600000" lane="e0_0" acceleration="0.000000" posLat="0.000000"/>
        <vehicle id="v1" x="170.099000" y="-2.400000" angle="90.000000" speed="5.000000" pos="170.099000" lane="e0_0" acceleration="-0.000000" posLat="0.000000"/>
    </timestep>
    <timestep time="32.000">
        <vehicle id="v0" x="187.600000" y="-2.400000" angle="90.000000" speed="5.000000" pos="187.600000" lane="e0_0" acceleration="0.000000" posLat="0.000000"/>
        <vehicle id="v1" x="175.099000" y="-2.400000" angle="90.000000" speed="5.000000" pos="175.099000" lane="e0_0" acceleration="-0.000000" posLat="0.000000"/>
    </timestep>
    <timestep time="33.000">
        <vehicle id="v0" x="192.600000" y="-2.400000" angle="90.000000" speed="5.000000" pos="192.600000" lane="e0_0" acceleration="0.000000" posLat="0.000000"/>
        <vehicle id="v1" x="180.099000" y="-2.400000" angle="90.000000" speed="5.000000" pos="180.099000" lane="e0_0" acceleration="-0.000000" posLat="0.000000"/>
    </timestep>
    <timestep time="34.000">
        <vehicle id="v0" x="197.600000" y="-2.400000" angle="90.000000" speed="5.000000" pos="197.600000" lane="e0_0" acceleration="0.000000" posLat="0.000000"/>
        <vehicle id="v1" x="185.099000" y="-2.400000" angle="90.000000" speed="5.000000" pos="185.099000" lane="e0_0" acceleration="-0.000000" posLat="0.000000"/>
    </timestep>
    <timestep time="35.000">
        <vehicle id="v0" x="202.600000" y="-2.400000" angle="90.000000" speed="5.000000" pos="202.600000" lane="e0_0" acceleration="0.000000" posLat="0.000000"/>
        <vehicle id="v1" x="190.099000" y="-2.400000" angle="90.000000" speed="5.000000" pos="190.099000" lane="e0_0" acceleration="-0.000000" posLat="0.000000"/>
    </timestep>
    <timestep time="36.000">
        <vehicle id="v0" x="207.600000" y="-2.400000" angle="90.000000" speed="5.000000" pos="207.600000" lane="e0_0" acceleration="0.000000" posLat="0.000000"/>
        <vehicle id="v1" x="195.099000" y="-2.400000" angle="90.000000" speed="5.000000" pos="195.099000" lane="e0_0" acceleration="-0.000000" posLat="0.000000"/>
    </timestep>
    <timestep time="37.000">
        <vehicle id="v0" x="212.600000" y="-2.400000" angle="90.000000" speed="5.000000" pos="212.600000" lane="e0_0" acceleration="0.000000" posLat="0.000000"/>
        <vehicle id="v1" x="200.099000" y="-2.400000" angle="90.000000" speed="5.000000" pos="200.099000" lane="e0_0" acceleration="-0.000000" posLat="0.000000"/>
    </timestep>
    <timestep time="38.000">
        <vehicle id="v0" x="217.600000" y="-2.400000" angle="90.000000" speed="5.000000" pos="217.600000" lane="e0_0" acceleration="0.000000" posLat="0.000000"/>
        <vehicle id="v1" x="205.099000" y="-2.400000" angle="90.000000" speed="5.000000" pos="205.099000" lane="e0_0" acceleration="-0.000000" posLat="0.000000"/>
    </timestep>
    <timestep time="39.000">
        <vehicle id="v0" x="222.600000" y="-2.400000" angle="90.000000" speed="5.000000" pos="222.600000" lane="e0_0" acceleration="0.000000" posLat="0.000000"/>
        <vehicle id="v1" x="210.099000" y="-2.400000" angle="90.000000" speed="5.000000" pos="210.099000" lane="e0_0" acceleration="-0.000000" posLat="0.000000"/>
    </timestep>
</fcd-export>
