<?xml version="1.0" encoding="UTF-8"?>

<!-- generated on 2026-07-18 22:50:45 by Eclipse SUMO sumo Version 1.20.0
<configuration xmlns:xsi="http://www.w3.org/2001/XMLSchema-instance" xsi:noNamespaceSchemaLocation="http://sumo.dlr.de/xsd/sumoConfiguration.xsd">

    <input>
        <net-file value="/home/user/SumoSharp/scenarios/73-reroute-routelength/net.net.xml"/>
        <route-files value="/home/user/SumoSharp/scenarios/73-reroute-routelength/rou.rou.xml"/>
    </input>

    <output>
        <precision value="6"/>
        <fcd-output value="/home/user/SumoSharp/scenarios/73-reroute-routelength/golden.fcd.xml"/>
        <fcd-output.acceleration value="true"/>
        <tripinfo-output value="/home/user/SumoSharp/scenarios/73-reroute-routelength/golden.tripinfo.xml"/>
        <save-state.times value="1"/>
        <save-state.files value="/home/user/SumoSharp/scenarios/73-reroute-routelength/golden.state.xml"/>
    </output>

    <time>
        <begin value="0"/>
        <end value="120"/>
        <step-length value="1"/>
    </time>

    <processing>
        <step-method.ballistic value="false"/>
        <collision.action value="none"/>
        <time-to-teleport value="-1"/>
        <default.action-step-length value="1"/>
        <default.speeddev value="0"/>
    </processing>

    <routing>
        <routing-algorithm value="astar"/>
        <device.rerouting.probability value="1.0"/>
        <device.rerouting.period value="8"/>
        <device.rerouting.adaptation-steps value="3"/>
    </routing>

    <report>
        <no-step-log value="true"/>
    </report>

    <random_number>
        <seed value="42"/>
    </random_number>

</configuration>
-->

<tripinfos xmlns:xsi="http://www.w3.org/2001/XMLSchema-instance" xsi:noNamespaceSchemaLocation="http://sumo.dlr.de/xsd/tripinfo_file.xsd">
    <tripinfo id="rerouted" depart="0.000" departLane="e_src1_0" departPos="0.000000" departSpeed="0.000000" departDelay="0.000" arrival="60.000" arrivalLane="e_dest_0" arrivalPos="197.490000" arrivalSpeed="13.890000" duration="60.000" routeLength="756.210000" waitingTime="0.000" waitingCount="0" stopTime="0.000" timeLoss="4.942" rerouteNo="1" devices="tripinfo_rerouted routing_rerouted fcd_rerouted" vType="car" speedFactor="1.000000" vaporized=""/>
</tripinfos>
