<?xml version="1.0" encoding="UTF-8"?>

<!-- generated on 2026-07-07 11:40:07 by Eclipse SUMO sumo Version 1.20.0
<configuration xmlns:xsi="http://www.w3.org/2001/XMLSchema-instance" xsi:noNamespaceSchemaLocation="http://sumo.dlr.de/xsd/sumoConfiguration.xsd">

    <input>
        <net-file value="net.net.xml"/>
        <route-files value="rou.rou.xml"/>
    </input>

    <output>
        <precision value="6"/>
        <fcd-output value="golden.fcd.xml"/>
        <fcd-output.acceleration value="true"/>
        <save-state.times value="1"/>
        <save-state.files value="golden.state.xml"/>
    </output>

    <time>
        <begin value="0"/>
        <end value="60"/>
        <step-length value="1"/>
    </time>

    <processing>
        <step-method.ballistic value="false"/>
        <collision.action value="none"/>
        <time-to-teleport value="-1"/>
        <default.action-step-length value="1"/>
        <default.speeddev value="0"/>
    </processing>

    <report>
        <no-step-log value="true"/>
    </report>

    <random_number>
        <seed value="42"/>
    </random_number>

</configuration>
-->

<fcd-export xmlns:xsi="http://www.w3.org/2001/XMLSchema-instance" xsi:noNamespaceSchemaLocation="http://sumo.dlr.de/xsd/fcd_file.xsd">
    <timestep time="0.000">
        <vehicle id="blocker" x="50.000000" y="-1.600000" angle="90.000000" type="car" speed="0.000000" pos="50.000000" lane="e0_0" slope="0.000000" acceleration="0.000000"/>
        <vehicle id="follower" x="0.000000" y="-1.600000" angle="90.000000" type="car" speed="0.000000" pos="0.000000" lane="e0_0" slope="0.000000" acceleration="0.000000"/>
    </timestep>
    <timestep time="1.000">
        <vehicle id="blocker" x="52.600000" y="-1.600000" angle="90.000000" type="car" speed="2.600000" pos="52.600000" lane="e0_0" slope="0.000000" acceleration="2.600000"/>
        <vehicle id="follower" x="2.600000" y="-1.600000" angle="90.000000" type="car" speed="2.600000" pos="2.600000" lane="e0_0" slope="0.000000" acceleration="2.600000"/>
    </timestep>
    <timestep time="2.000">
        <vehicle id="blocker" x="57.800000" y="-1.600000" angle="90.000000" type="car" speed="5.200000" pos="57.800000" lane="e0_0" slope="0.000000" acceleration="2.600000"/>
        <vehicle id="follower" x="7.800000" y="-1.600000" angle="90.000000" type="car" speed="5.200000" pos="7.800000" lane="e0_0" slope="0.000000" acceleration="2.600000"/>
    </timestep>
    <timestep time="3.000">
        <vehicle id="blocker" x="65.600000" y="-1.600000" angle="90.000000" type="car" speed="7.800000" pos="65.600000" lane="e0_0" slope="0.000000" acceleration="2.600000"/>
        <vehicle id="follower" x="15.600000" y="-1.600000" angle="90.000000" type="car" speed="7.800000" pos="15.600000" lane="e0_0" slope="0.000000" acceleration="2.600000"/>
    </timestep>
    <timestep time="4.000">
        <vehicle id="blocker" x="76.000000" y="-1.600000" angle="90.000000" type="car" speed="10.400000" pos="76.000000" lane="e0_0" slope="0.000000" acceleration="2.600000"/>
        <vehicle id="follower" x="26.000000" y="-1.600000" angle="90.000000" type="car" speed="10.400000" pos="26.000000" lane="e0_0" slope="0.000000" acceleration="2.600000"/>
    </timestep>
    <timestep time="5.000">
        <vehicle id="blocker" x="89.000000" y="-1.600000" angle="90.000000" type="car" speed="13.000000" pos="89.000000" lane="e0_0" slope="0.000000" acceleration="2.600000"/>
        <vehicle id="follower" x="39.000000" y="-1.600000" angle="90.000000" type="car" speed="13.000000" pos="39.000000" lane="e0_0" slope="0.000000" acceleration="2.600000"/>
    </timestep>
    <timestep time="6.000">
        <vehicle id="blocker" x="102.890000" y="-1.600000" angle="90.000000" type="car" speed="13.890000" pos="102.890000" lane="e0_0" slope="0.000000" acceleration="0.890000"/>
        <vehicle id="follower" x="52.890000" y="-1.600000" angle="90.000000" type="car" speed="13.890000" pos="52.890000" lane="e0_0" slope="0.000000" acceleration="0.890000"/>
    </timestep>
    <timestep time="7.000">
        <vehicle id="blocker" x="116.780000" y="-1.600000" angle="90.000000" type="car" speed="13.890000" pos="116.780000" lane="e0_0" slope="0.000000" acceleration="0.000000"/>
        <vehicle id="follower" x="66.780000" y="-1.600000" angle="90.000000" type="car" speed="13.890000" pos="66.780000" lane="e0_0" slope="0.000000" acceleration="0.000000"/>
    </timestep>
    <timestep time="8.000">
        <vehicle id="blocker" x="130.670000" y="-1.600000" angle="90.000000" type="car" speed="13.890000" pos="130.670000" lane="e0_0" slope="0.000000" acceleration="0.000000"/>
        <vehicle id="follower" x="80.670000" y="-1.600000" angle="90.000000" type="car" speed="13.890000" pos="80.670000" lane="e0_0" slope="0.000000" acceleration="0.000000"/>
    </timestep>
    <timestep time="9.000">
        <vehicle id="blocker" x="144.560000" y="-1.600000" angle="90.000000" type="car" speed="13.890000" pos="144.560000" lane="e0_0" slope="0.000000" acceleration="0.000000"/>
        <vehicle id="follower" x="94.560000" y="-1.600000" angle="90.000000" type="car" speed="13.890000" pos="94.560000" lane="e0_0" slope="0.000000" acceleration="0.000000"/>
    </timestep>
    <timestep time="10.000">
        <vehicle id="blocker" x="158.450000" y="-1.600000" angle="90.000000" type="car" speed="13.890000" pos="158.450000" lane="e0_0" slope="0.000000" acceleration="0.000000"/>
        <vehicle id="follower" x="108.450000" y="-1.600000" angle="90.000000" type="car" speed="13.890000" pos="108.450000" lane="e0_0" slope="0.000000" acceleration="0.000000"/>
    </timestep>
    <timestep time="11.000">
        <vehicle id="blocker" x="172.340000" y="-1.600000" angle="90.000000" type="car" speed="13.890000" pos="172.340000" lane="e0_0" slope="0.000000" acceleration="0.000000"/>
        <vehicle id="follower" x="122.340000" y="-1.600000" angle="90.000000" type="car" speed="13.890000" pos="122.340000" lane="e0_0" slope="0.000000" acceleration="0.000000"/>
    </timestep>
    <timestep time="12.000">
        <vehicle id="blocker" x="186.230000" y="-1.600000" angle="90.000000" type="car" speed="13.890000" pos="186.230000" lane="e0_0" slope="0.000000" acceleration="0.000000"/>
        <vehicle id="follower" x="136.230000" y="-1.600000" angle="90.000000" type="car" speed="13.890000" pos="136.230000" lane="e0_0" slope="0.000000" acceleration="0.000000"/>
    </timestep>
    <timestep time="13.000">
        <vehicle id="blocker" x="200.120000" y="-1.600000" angle="90.000000" type="car" speed="13.890000" pos="200.120000" lane="e0_0" slope="0.000000" acceleration="0.000000"/>
        <vehicle id="follower" x="150.120000" y="-1.600000" angle="90.000000" type="car" speed="13.890000" pos="150.120000" lane="e0_0" slope="0.000000" acceleration="0.000000"/>
    </timestep>
    <timestep time="14.000">
        <vehicle id="blocker" x="214.010000" y="-1.600000" angle="90.000000" type="car" speed="13.890000" pos="214.010000" lane="e0_0" slope="0.000000" acceleration="0.000000"/>
        <vehicle id="follower" x="164.010000" y="-1.600000" angle="90.000000" type="car" speed="13.890000" pos="164.010000" lane="e0_0" slope="0.000000" acceleration="0.000000"/>
    </timestep>
    <timestep time="15.000">
        <vehicle id="blocker" x="227.900000" y="-1.600000" angle="90.000000" type="car" speed="13.890000" pos="227.900000" lane="e0_0" slope="0.000000" acceleration="0.000000"/>
        <vehicle id="follower" x="177.900000" y="-1.600000" angle="90.000000" type="car" speed="13.890000" pos="177.900000" lane="e0_0" slope="0.000000" acceleration="0.000000"/>
    </timestep>
    <timestep time="16.000">
        <vehicle id="blocker" x="239.766667" y="-1.600000" angle="90.000000" type="car" speed="11.866667" pos="239.766667" lane="e0_0" slope="0.000000" acceleration="-2.023333"/>
        <vehicle id="follower" x="191.790000" y="-1.600000" angle="90.000000" type="car" speed="13.890000" pos="191.790000" lane="e0_0" slope="0.000000" acceleration="0.000000"/>
    </timestep>
    <timestep time="17.000">
        <vehicle id="blocker" x="247.133333" y="-1.600000" angle="90.000000" type="car" speed="7.366667" pos="247.133333" lane="e0_0" slope="0.000000" acceleration="-4.500000"/>
        <vehicle id="follower" x="205.680000" y="-1.600000" angle="90.000000" type="car" speed="13.890000" pos="205.680000" lane="e0_0" slope="0.000000" acceleration="0.000000"/>
    </timestep>
    <timestep time="18.000">
        <vehicle id="blocker" x="250.000000" y="-1.600000" angle="90.000000" type="car" speed="2.866667" pos="250.000000" lane="e0_0" slope="0.000000" acceleration="-4.500000"/>
        <vehicle id="follower" x="219.570000" y="-1.600000" angle="90.000000" type="car" speed="13.890000" pos="219.570000" lane="e0_0" slope="0.000000" acceleration="0.000000"/>
    </timestep>
    <timestep time="19.000">
        <vehicle id="blocker" x="250.000000" y="-1.600000" angle="90.000000" type="car" speed="0.000000" pos="250.000000" lane="e0_0" slope="0.000000" acceleration="-2.866667"/>
        <vehicle id="follower" x="231.713000" y="-1.600000" angle="90.000000" type="car" speed="12.143000" pos="231.713000" lane="e0_0" slope="0.000000" acceleration="-1.747000"/>
    </timestep>
    <timestep time="20.000">
        <vehicle id="blocker" x="250.000000" y="-1.600000" angle="90.000000" type="car" speed="0.000000" pos="250.000000" lane="e0_0" slope="0.000000" acceleration="0.000000"/>
        <vehicle id="follower" x="239.356000" y="-1.600000" angle="90.000000" type="car" speed="7.643000" pos="239.356000" lane="e0_0" slope="0.000000" acceleration="-4.500000"/>
    </timestep>
    <timestep time="21.000">
        <vehicle id="blocker" x="250.000000" y="-1.600000" angle="90.000000" type="car" speed="0.000000" pos="250.000000" lane="e0_0" slope="0.000000" acceleration="0.000000"/>
        <vehicle id="follower" x="242.499000" y="-1.600000" angle="90.000000" type="car" speed="3.143000" pos="242.499000" lane="e0_0" slope="0.000000" acceleration="-4.500000"/>
    </timestep>
    <timestep time="22.000">
        <vehicle id="blocker" x="250.000000" y="-1.600000" angle="90.000000" type="car" speed="0.000000" pos="250.000000" lane="e0_0" slope="0.000000" acceleration="0.000000"/>
        <vehicle id="follower" x="242.499000" y="-1.600000" angle="90.000000" type="car" speed="0.000000" pos="242.499000" lane="e0_0" slope="0.000000" acceleration="-3.143000"/>
    </timestep>
    <timestep time="23.000">
        <vehicle id="blocker" x="250.000000" y="-1.600000" angle="90.000000" type="car" speed="0.000000" pos="250.000000" lane="e0_0" slope="0.000000" acceleration="0.000000"/>
        <vehicle id="follower" x="242.499000" y="-1.600000" angle="90.000000" type="car" speed="0.000000" pos="242.499000" lane="e0_0" slope="0.000000" acceleration="0.000000"/>
    </timestep>
    <timestep time="24.000">
        <vehicle id="blocker" x="250.000000" y="-1.600000" angle="90.000000" type="car" speed="0.000000" pos="250.000000" lane="e0_0" slope="0.000000" acceleration="0.000000"/>
        <vehicle id="follower" x="242.499000" y="-1.600000" angle="90.000000" type="car" speed="0.000000" pos="242.499000" lane="e0_0" slope="0.000000" acceleration="0.000000"/>
    </timestep>
    <timestep time="25.000">
        <vehicle id="blocker" x="250.000000" y="-1.600000" angle="90.000000" type="car" speed="0.000000" pos="250.000000" lane="e0_0" slope="0.000000" acceleration="0.000000"/>
        <vehicle id="follower" x="242.499000" y="-1.600000" angle="90.000000" type="car" speed="0.000000" pos="242.499000" lane="e0_0" slope="0.000000" acceleration="0.000000"/>
    </timestep>
    <timestep time="26.000">
        <vehicle id="blocker" x="250.000000" y="-1.600000" angle="90.000000" type="car" speed="0.000000" pos="250.000000" lane="e0_0" slope="0.000000" acceleration="0.000000"/>
        <vehicle id="follower" x="242.499000" y="-1.600000" angle="90.000000" type="car" speed="0.000000" pos="242.499000" lane="e0_0" slope="0.000000" acceleration="0.000000"/>
    </timestep>
    <timestep time="27.000">
        <vehicle id="blocker" x="250.000000" y="-1.600000" angle="90.000000" type="car" speed="0.000000" pos="250.000000" lane="e0_0" slope="0.000000" acceleration="0.000000"/>
        <vehicle id="follower" x="242.499000" y="-1.600000" angle="90.000000" type="car" speed="0.000000" pos="242.499000" lane="e0_0" slope="0.000000" acceleration="0.000000"/>
    </timestep>
    <timestep time="28.000">
        <vehicle id="blocker" x="250.000000" y="-1.600000" angle="90.000000" type="car" speed="0.000000" pos="250.000000" lane="e0_0" slope="0.000000" acceleration="0.000000"/>
        <vehicle id="follower" x="242.499000" y="-1.600000" angle="90.000000" type="car" speed="0.000000" pos="242.499000" lane="e0_0" slope="0.000000" acceleration="0.000000"/>
    </timestep>
    <timestep time="29.000">
        <vehicle id="blocker" x="250.000000" y="-1.600000" angle="90.000000" type="car" speed="0.000000" pos="250.000000" lane="e0_0" slope="0.000000" acceleration="0.000000"/>
        <vehicle id="follower" x="242.499000" y="-1.600000" angle="90.000000" type="car" speed="0.000000" pos="242.499000" lane="e0_0" slope="0.000000" acceleration="0.000000"/>
    </timestep>
    <timestep time="30.000">
        <vehicle id="blocker" x="250.000000" y="-1.600000" angle="90.000000" type="car" speed="0.000000" pos="250.000000" lane="e0_0" slope="0.000000" acceleration="0.000000"/>
        <vehicle id="follower" x="242.499000" y="-1.600000" angle="90.000000" type="car" speed="0.000000" pos="242.499000" lane="e0_0" slope="0.000000" acceleration="0.000000"/>
    </timestep>
    <timestep time="31.000">
        <vehicle id="blocker" x="250.000000" y="-1.600000" angle="90.000000" type="car" speed="0.000000" pos="250.000000" lane="e0_0" slope="0.000000" acceleration="0.000000"/>
        <vehicle id="follower" x="242.499000" y="-1.600000" angle="90.000000" type="car" speed="0.000000" pos="242.499000" lane="e0_0" slope="0.000000" acceleration="0.000000"/>
    </timestep>
    <timestep time="32.000">
        <vehicle id="blocker" x="250.000000" y="-1.600000" angle="90.000000" type="car" speed="0.000000" pos="250.000000" lane="e0_0" slope="0.000000" acceleration="0.000000"/>
        <vehicle id="follower" x="242.499000" y="-1.600000" angle="90.000000" type="car" speed="0.000000" pos="242.499000" lane="e0_0" slope="0.000000" acceleration="0.000000"/>
    </timestep>
    <timestep time="33.000">
        <vehicle id="blocker" x="250.000000" y="-1.600000" angle="90.000000" type="car" speed="0.000000" pos="250.000000" lane="e0_0" slope="0.000000" acceleration="0.000000"/>
        <vehicle id="follower" x="242.499000" y="-1.600000" angle="90.000000" type="car" speed="0.000000" pos="242.499000" lane="e0_0" slope="0.000000" acceleration="0.000000"/>
    </timestep>
    <timestep time="34.000">
        <vehicle id="blocker" x="250.000000" y="-1.600000" angle="90.000000" type="car" speed="0.000000" pos="250.000000" lane="e0_0" slope="0.000000" acceleration="0.000000"/>
        <vehicle id="follower" x="242.499000" y="-1.600000" angle="90.000000" type="car" speed="0.000000" pos="242.499000" lane="e0_0" slope="0.000000" acceleration="0.000000"/>
    </timestep>
    <timestep time="35.000">
        <vehicle id="blocker" x="250.000000" y="-1.600000" angle="90.000000" type="car" speed="0.000000" pos="250.000000" lane="e0_0" slope="0.000000" acceleration="0.000000"/>
        <vehicle id="follower" x="242.499000" y="-1.600000" angle="90.000000" type="car" speed="0.000000" pos="242.499000" lane="e0_0" slope="0.000000" acceleration="0.000000"/>
    </timestep>
    <timestep time="36.000">
        <vehicle id="blocker" x="250.000000" y="-1.600000" angle="90.000000" type="car" speed="0.000000" pos="250.000000" lane="e0_0" slope="0.000000" acceleration="0.000000"/>
        <vehicle id="follower" x="242.499000" y="-1.600000" angle="90.000000" type="car" speed="0.000000" pos="242.499000" lane="e0_0" slope="0.000000" acceleration="0.000000"/>
    </timestep>
    <timestep time="37.000">
        <vehicle id="blocker" x="250.000000" y="-1.600000" angle="90.000000" type="car" speed="0.000000" pos="250.000000" lane="e0_0" slope="0.000000" acceleration="0.000000"/>
        <vehicle id="follower" x="242.499000" y="-1.600000" angle="90.000000" type="car" speed="0.000000" pos="242.499000" lane="e0_0" slope="0.000000" acceleration="0.000000"/>
    </timestep>
    <timestep time="38.000">
        <vehicle id="blocker" x="250.000000" y="-1.600000" angle="90.000000" type="car" speed="0.000000" pos="250.000000" lane="e0_0" slope="0.000000" acceleration="0.000000"/>
        <vehicle id="follower" x="242.499000" y="-1.600000" angle="90.000000" type="car" speed="0.000000" pos="242.499000" lane="e0_0" slope="0.000000" acceleration="0.000000"/>
    </timestep>
    <timestep time="39.000">
        <vehicle id="blocker" x="250.000000" y="-1.600000" angle="90.000000" type="car" speed="0.000000" pos="250.000000" lane="e0_0" slope="0.000000" acceleration="0.000000"/>
        <vehicle id="follower" x="242.499000" y="-1.600000" angle="90.000000" type="car" speed="0.000000" pos="242.499000" lane="e0_0" slope="0.000000" acceleration="0.000000"/>
    </timestep>
    <timestep time="40.000">
        <vehicle id="blocker" x="250.000000" y="-1.600000" angle="90.000000" type="car" speed="0.000000" pos="250.000000" lane="e0_0" slope="0.000000" acceleration="0.000000"/>
        <vehicle id="follower" x="242.499000" y="-1.600000" angle="90.000000" type="car" speed="0.000000" pos="242.499000" lane="e0_0" slope="0.000000" acceleration="0.000000"/>
    </timestep>
    <timestep time="41.000">
        <vehicle id="blocker" x="250.000000" y="-1.600000" angle="90.000000" type="car" speed="0.000000" pos="250.000000" lane="e0_0" slope="0.000000" acceleration="0.000000"/>
        <vehicle id="follower" x="242.499000" y="-1.600000" angle="90.000000" type="car" speed="0.000000" pos="242.499000" lane="e0_0" slope="0.000000" acceleration="0.000000"/>
    </timestep>
    <timestep time="42.000">
        <vehicle id="blocker" x="250.000000" y="-1.600000" angle="90.000000" type="car" speed="0.000000" pos="250.000000" lane="e0_0" slope="0.000000" acceleration="0.000000"/>
        <vehicle id="follower" x="242.499000" y="-1.600000" angle="90.000000" type="car" speed="0.000000" pos="242.499000" lane="e0_0" slope="0.000000" acceleration="0.000000"/>
    </timestep>
    <timestep time="43.000">
        <vehicle id="blocker" x="250.000000" y="-1.600000" angle="90.000000" type="car" speed="0.000000" pos="250.000000" lane="e0_0" slope="0.000000" acceleration="0.000000"/>
        <vehicle id="follower" x="242.499000" y="-1.600000" angle="90.000000" type="car" speed="0.000000" pos="242.499000" lane="e0_0" slope="0.000000" acceleration="0.000000"/>
    </timestep>
    <timestep time="44.000">
        <vehicle id="blocker" x="250.000000" y="-1.600000" angle="90.000000" type="car" speed="0.000000" pos="250.000000" lane="e0_0" slope="0.000000" acceleration="0.000000"/>
        <vehicle id="follower" x="242.499000" y="-1.600000" angle="90.000000" type="car" speed="0.000000" pos="242.499000" lane="e0_0" slope="0.000000" acceleration="0.000000"/>
    </timestep>
    <timestep time="45.000">
        <vehicle id="blocker" x="250.000000" y="-1.600000" angle="90.000000" type="car" speed="0.000000" pos="250.000000" lane="e0_0" slope="0.000000" acceleration="0.000000"/>
        <vehicle id="follower" x="242.499000" y="-1.600000" angle="90.000000" type="car" speed="0.000000" pos="242.499000" lane="e0_0" slope="0.000000" acceleration="0.000000"/>
    </timestep>
    <timestep time="46.000">
        <vehicle id="blocker" x="250.000000" y="-1.600000" angle="90.000000" type="car" speed="0.000000" pos="250.000000" lane="e0_0" slope="0.000000" acceleration="0.000000"/>
        <vehicle id="follower" x="242.499000" y="-1.600000" angle="90.000000" type="car" speed="0.000000" pos="242.499000" lane="e0_0" slope="0.000000" acceleration="0.000000"/>
    </timestep>
    <timestep time="47.000">
        <vehicle id="blocker" x="250.000000" y="-1.600000" angle="90.000000" type="car" speed="0.000000" pos="250.000000" lane="e0_0" slope="0.000000" acceleration="0.000000"/>
        <vehicle id="follower" x="242.499000" y="-1.600000" angle="90.000000" type="car" speed="0.000000" pos="242.499000" lane="e0_0" slope="0.000000" acceleration="0.000000"/>
    </timestep>
    <timestep time="48.000">
        <vehicle id="blocker" x="250.000000" y="-1.600000" angle="90.000000" type="car" speed="0.000000" pos="250.000000" lane="e0_0" slope="0.000000" acceleration="0.000000"/>
        <vehicle id="follower" x="242.499000" y="-1.600000" angle="90.000000" type="car" speed="0.000000" pos="242.499000" lane="e0_0" slope="0.000000" acceleration="0.000000"/>
    </timestep>
    <timestep time="49.000">
        <vehicle id="blocker" x="250.000000" y="-1.600000" angle="90.000000" type="car" speed="0.000000" pos="250.000000" lane="e0_0" slope="0.000000" acceleration="0.000000"/>
        <vehicle id="follower" x="242.499000" y="-1.600000" angle="90.000000" type="car" speed="0.000000" pos="242.499000" lane="e0_0" slope="0.000000" acceleration="0.000000"/>
    </timestep>
    <timestep time="50.000">
        <vehicle id="blocker" x="250.000000" y="-1.600000" angle="90.000000" type="car" speed="0.000000" pos="250.000000" lane="e0_0" slope="0.000000" acceleration="0.000000"/>
        <vehicle id="follower" x="242.499000" y="-1.600000" angle="90.000000" type="car" speed="0.000000" pos="242.499000" lane="e0_0" slope="0.000000" acceleration="0.000000"/>
    </timestep>
    <timestep time="51.000">
        <vehicle id="blocker" x="250.000000" y="-1.600000" angle="90.000000" type="car" speed="0.000000" pos="250.000000" lane="e0_0" slope="0.000000" acceleration="0.000000"/>
        <vehicle id="follower" x="242.499000" y="-1.600000" angle="90.000000" type="car" speed="0.000000" pos="242.499000" lane="e0_0" slope="0.000000" acceleration="0.000000"/>
    </timestep>
    <timestep time="52.000">
        <vehicle id="blocker" x="250.000000" y="-1.600000" angle="90.000000" type="car" speed="0.000000" pos="250.000000" lane="e0_0" slope="0.000000" acceleration="0.000000"/>
        <vehicle id="follower" x="242.499000" y="-1.600000" angle="90.000000" type="car" speed="0.000000" pos="242.499000" lane="e0_0" slope="0.000000" acceleration="0.000000"/>
    </timestep>
    <timestep time="53.000">
        <vehicle id="blocker" x="250.000000" y="-1.600000" angle="90.000000" type="car" speed="0.000000" pos="250.000000" lane="e0_0" slope="0.000000" acceleration="0.000000"/>
        <vehicle id="follower" x="242.499000" y="-1.600000" angle="90.000000" type="car" speed="0.000000" pos="242.499000" lane="e0_0" slope="0.000000" acceleration="0.000000"/>
    </timestep>
    <timestep time="54.000">
        <vehicle id="blocker" x="250.000000" y="-1.600000" angle="90.000000" type="car" speed="0.000000" pos="250.000000" lane="e0_0" slope="0.000000" acceleration="0.000000"/>
        <vehicle id="follower" x="242.499000" y="-1.600000" angle="90.000000" type="car" speed="0.000000" pos="242.499000" lane="e0_0" slope="0.000000" acceleration="0.000000"/>
    </timestep>
    <timestep time="55.000">
        <vehicle id="blocker" x="250.000000" y="-1.600000" angle="90.000000" type="car" speed="0.000000" pos="250.000000" lane="e0_0" slope="0.000000" acceleration="0.000000"/>
        <vehicle id="follower" x="242.499000" y="-1.600000" angle="90.000000" type="car" speed="0.000000" pos="242.499000" lane="e0_0" slope="0.000000" acceleration="0.000000"/>
    </timestep>
    <timestep time="56.000">
        <vehicle id="blocker" x="250.000000" y="-1.600000" angle="90.000000" type="car" speed="0.000000" pos="250.000000" lane="e0_0" slope="0.000000" acceleration="0.000000"/>
        <vehicle id="follower" x="242.499000" y="-1.600000" angle="90.000000" type="car" speed="0.000000" pos="242.499000" lane="e0_0" slope="0.000000" acceleration="0.000000"/>
    </timestep>
    <timestep time="57.000">
        <vehicle id="blocker" x="250.000000" y="-1.600000" angle="90.000000" type="car" speed="0.000000" pos="250.000000" lane="e0_0" slope="0.000000" acceleration="0.000000"/>
        <vehicle id="follower" x="242.499000" y="-1.600000" angle="90.000000" type="car" speed="0.000000" pos="242.499000" lane="e0_0" slope="0.000000" acceleration="0.000000"/>
    </timestep>
    <timestep time="58.000">
        <vehicle id="blocker" x="250.000000" y="-1.600000" angle="90.000000" type="car" speed="0.000000" pos="250.000000" lane="e0_0" slope="0.000000" acceleration="0.000000"/>
        <vehicle id="follower" x="242.499000" y="-1.600000" angle="90.000000" type="car" speed="0.000000" pos="242.499000" lane="e0_0" slope="0.000000" acceleration="0.000000"/>
    </timestep>
    <timestep time="59.000">
        <vehicle id="blocker" x="250.000000" y="-1.600000" angle="90.000000" type="car" speed="0.000000" pos="250.000000" lane="e0_0" slope="0.000000" acceleration="0.000000"/>
        <vehicle id="follower" x="242.499000" y="-1.600000" angle="90.000000" type="car" speed="0.000000" pos="242.499000" lane="e0_0" slope="0.000000" acceleration="0.000000"/>
    </timestep>
</fcd-export>
