<?xml version="1.0" encoding="UTF-8"?>

<!-- generated on 2026-07-12 18:50:41 by Eclipse SUMO sumo Version 1.20.0
<configuration xmlns:xsi="http://www.w3.org/2001/XMLSchema-instance" xsi:noNamespaceSchemaLocation="http://sumo.dlr.de/xsd/sumoConfiguration.xsd">

    <input>
        <net-file value="net.net.xml"/>
        <route-files value="rou.rou.xml"/>
    </input>

    <output>
        <precision value="6"/>
        <fcd-output value="golden.fcd.xml"/>
        <fcd-output.attributes value="x,y,angle,speed,pos,lane,posLat,acceleration"/>
    </output>

    <time>
        <begin value="0"/>
        <end value="120"/>
        <step-length value="1"/>
    </time>

    <processing>
        <step-method.ballistic value="false"/>
        <lateral-resolution value="0.8"/>
        <collision.action value="none"/>
        <time-to-teleport value="-1"/>
        <default.action-step-length value="1"/>
        <default.speeddev value="0"/>
    </processing>

    <report>
        <no-step-log value="true"/>
    </report>

    <random_number>
        <seed value="42"/>
    </random_number>

</configuration>
-->

<fcd-export xmlns:xsi="http://www.w3.org/2001/XMLSchema-instance" xsi:noNamespaceSchemaLocation="http://sumo.dlr.de/xsd/fcd_file.xsd">
    <timestep time="0.000">
        <vehicle id="f0" x="0.000000" y="-3.600000" angle="90.000000" speed="0.000000" pos="0.000000" lane="e0_0" acceleration="0.000000" posLat="0.000000"/>
    </timestep>
    <timestep time="1.000">
        <vehicle id="f0" x="2.600000" y="-3.600000" angle="90.000000" speed="2.600000" pos="2.600000" lane="e0_0" acceleration="2.600000" posLat="0.000000"/>
    </timestep>
    <timestep time="2.000">
        <vehicle id="f0" x="7.800000" y="-3.600000" angle="90.000000" speed="5.200000" pos="7.800000" lane="e0_0" acceleration="2.600000" posLat="0.000000"/>
        <vehicle id="s0" x="0.000000" y="-3.600000" angle="90.000000" speed="0.000000" pos="0.000000" lane="e0_0" acceleration="0.000000" posLat="0.000000"/>
    </timestep>
    <timestep time="3.000">
        <vehicle id="f0" x="15.600000" y="-3.600000" angle="90.000000" speed="7.800000" pos="15.600000" lane="e0_0" acceleration="2.600000" posLat="0.000000"/>
        <vehicle id="s0" x="0.999000" y="-3.600000" angle="90.000000" speed="0.999000" pos="0.999000" lane="e0_0" acceleration="0.999000" posLat="0.000000"/>
    </timestep>
    <timestep time="4.000">
        <vehicle id="f0" x="26.000000" y="-3.600000" angle="90.000000" speed="10.400000" pos="26.000000" lane="e0_0" acceleration="2.600000" posLat="0.000000"/>
        <vehicle id="s0" x="4.598000" y="-3.600000" angle="90.000000" speed="3.599000" pos="4.598000" lane="e0_0" acceleration="2.600000" posLat="0.000000"/>
    </timestep>
    <timestep time="5.000">
        <vehicle id="f0" x="39.000000" y="-3.600000" angle="90.000000" speed="13.000000" pos="39.000000" lane="e0_0" acceleration="2.600000" posLat="0.000000"/>
        <vehicle id="f1" x="0.000000" y="-3.600000" angle="90.000000" speed="0.000000" pos="0.000000" lane="e0_0" acceleration="0.000000" posLat="0.000000"/>
        <vehicle id="s0" x="10.598000" y="-3.600000" angle="90.000000" speed="6.000000" pos="10.598000" lane="e0_0" acceleration="2.401000" posLat="0.000000"/>
    </timestep>
    <timestep time="6.000">
        <vehicle id="f0" x="52.890000" y="-3.600000" angle="90.000000" speed="13.890000" pos="52.890000" lane="e0_0" acceleration="0.890000" posLat="0.000000"/>
        <vehicle id="f1" x="2.600000" y="-3.600000" angle="90.000000" speed="2.600000" pos="2.600000" lane="e0_0" acceleration="2.600000" posLat="0.000000"/>
        <vehicle id="s0" x="16.598000" y="-3.600000" angle="90.000000" speed="6.000000" pos="16.598000" lane="e0_0" acceleration="0.000000" posLat="0.000000"/>
    </timestep>
    <timestep time="7.000">
        <vehicle id="f0" x="66.780000" y="-3.600000" angle="90.000000" speed="13.890000" pos="66.780000" lane="e0_0" acceleration="0.000000" posLat="0.000000"/>
        <vehicle id="f1" x="7.800000" y="-3.600000" angle="90.000000" speed="5.200000" pos="7.800000" lane="e0_0" acceleration="2.600000" posLat="0.000000"/>
        <vehicle id="s0" x="22.598000" y="-3.600000" angle="90.000000" speed="6.000000" pos="22.598000" lane="e0_0" acceleration="0.000000" posLat="0.000000"/>
        <vehicle id="s1" x="0.000000" y="-3.600000" angle="90.000000" speed="0.000000" pos="0.000000" lane="e0_0" acceleration="0.000000" posLat="0.000000"/>
    </timestep>
    <timestep time="8.000">
        <vehicle id="f0" x="80.670000" y="-3.600000" angle="90.000000" speed="13.890000" pos="80.670000" lane="e0_0" acceleration="0.000000" posLat="0.000000"/>
        <vehicle id="f1" x="14.448500" y="-3.600000" angle="90.000000" speed="6.648500" pos="14.448500" lane="e0_0" acceleration="1.448500" posLat="0.000000"/>
        <vehicle id="s0" x="28.598000" y="-3.600000" angle="90.000000" speed="6.000000" pos="28.598000" lane="e0_0" acceleration="0.000000" posLat="0.000000"/>
        <vehicle id="s1" x="0.999000" y="-3.600000" angle="90.000000" speed="0.999000" pos="0.999000" lane="e0_0" acceleration="0.999000" posLat="0.000000"/>
    </timestep>
    <timestep time="9.000">
        <vehicle id="f0" x="94.560000" y="-3.600000" angle="90.000000" speed="13.890000" pos="94.560000" lane="e0_0" acceleration="0.000000" posLat="0.000000"/>
        <vehicle id="f1" x="20.772750" y="-3.600000" angle="90.000000" speed="6.324250" pos="20.772750" lane="e0_0" acceleration="-0.324250" posLat="0.000000"/>
        <vehicle id="s0" x="34.598000" y="-3.600000" angle="90.000000" speed="6.000000" pos="34.598000" lane="e0_0" acceleration="0.000000" posLat="0.000000"/>
        <vehicle id="s1" x="4.598000" y="-3.600000" angle="90.000000" speed="3.599000" pos="4.598000" lane="e0_0" acceleration="2.600000" posLat="0.000000"/>
    </timestep>
    <timestep time="10.000">
        <vehicle id="f0" x="108.450000" y="-3.600000" angle="90.000000" speed="13.890000" pos="108.450000" lane="e0_0" acceleration="0.000000" posLat="0.000000"/>
        <vehicle id="f1" x="26.934875" y="-4.600000" angle="99.217699" speed="6.162125" pos="26.934875" lane="e0_0" acceleration="-0.162125" posLat="-1.000000"/>
        <vehicle id="f2" x="0.000000" y="-3.600000" angle="90.000000" speed="0.000000" pos="0.000000" lane="e0_0" acceleration="0.000000" posLat="0.000000"/>
        <vehicle id="s0" x="40.598000" y="-3.600000" angle="90.000000" speed="6.000000" pos="40.598000" lane="e0_0" acceleration="0.000000" posLat="0.000000"/>
        <vehicle id="s1" x="10.598000" y="-3.600000" angle="90.000000" speed="6.000000" pos="10.598000" lane="e0_0" acceleration="2.401000" posLat="0.000000"/>
    </timestep>
    <timestep time="11.000">
        <vehicle id="f0" x="122.340000" y="-3.600000" angle="90.000000" speed="13.890000" pos="122.340000" lane="e0_0" acceleration="0.000000" posLat="0.000000"/>
        <vehicle id="f1" x="33.015937" y="-5.600000" angle="99.338423" speed="6.081062" pos="33.015937" lane="e0_0" acceleration="-0.081062" posLat="-2.000000"/>
        <vehicle id="f2" x="2.600000" y="-2.600000" angle="78.463041" speed="2.600000" pos="2.600000" lane="e0_0" acceleration="2.600000" posLat="1.000000"/>
        <vehicle id="s0" x="46.598000" y="-3.600000" angle="90.000000" speed="6.000000" pos="46.598000" lane="e0_0" acceleration="0.000000" posLat="0.000000"/>
        <vehicle id="s1" x="16.598000" y="-3.600000" angle="90.000000" speed="6.000000" pos="16.598000" lane="e0_0" acceleration="0.000000" posLat="0.000000"/>
    </timestep>
    <timestep time="12.000">
        <vehicle id="f0" x="136.230000" y="-3.600000" angle="90.000000" speed="13.890000" pos="136.230000" lane="e0_0" acceleration="0.000000" posLat="0.000000"/>
        <vehicle id="f1" x="39.056469" y="-6.299500" angle="96.605491" speed="6.040531" pos="39.056469" lane="e0_0" acceleration="-0.040531" posLat="-2.699500"/>
        <vehicle id="f2" x="7.800000" y="-1.600000" angle="79.114473" speed="5.200000" pos="7.800000" lane="e0_0" acceleration="2.600000" posLat="2.000000"/>
        <vehicle id="s0" x="52.598000" y="-3.600000" angle="90.000000" speed="6.000000" pos="52.598000" lane="e0_0" acceleration="0.000000" posLat="0.000000"/>
        <vehicle id="s1" x="22.598000" y="-3.600000" angle="90.000000" speed="6.000000" pos="22.598000" lane="e0_0" acceleration="0.000000" posLat="0.000000"/>
        <vehicle id="s2" x="0.000000" y="-3.600000" angle="90.000000" speed="0.000000" pos="0.000000" lane="e0_0" acceleration="0.000000" posLat="0.000000"/>
    </timestep>
    <timestep time="13.000">
        <vehicle id="f0" x="150.120000" y="-3.600000" angle="90.000000" speed="13.890000" pos="150.120000" lane="e0_0" acceleration="0.000000" posLat="0.000000"/>
        <vehicle id="f1" x="47.697000" y="-6.299500" angle="90.000000" speed="8.640531" pos="47.697000" lane="e0_0" acceleration="2.600000" posLat="-2.699500"/>
        <vehicle id="f2" x="14.448500" y="-1.499500" angle="89.133972" speed="6.648500" pos="14.448500" lane="e0_0" acceleration="1.448500" posLat="2.100500"/>
        <vehicle id="s0" x="58.598000" y="-3.600000" angle="90.000000" speed="6.000000" pos="58.598000" lane="e0_0" acceleration="0.000000" posLat="0.000000"/>
        <vehicle id="s1" x="28.598000" y="-3.600000" angle="90.000000" speed="6.000000" pos="28.598000" lane="e0_0" acceleration="0.000000" posLat="0.000000"/>
        <vehicle id="s2" x="0.999000" y="-3.600000" angle="90.000000" speed="0.999000" pos="0.999000" lane="e0_0" acceleration="0.999000" posLat="0.000000"/>
    </timestep>
    <timestep time="14.000">
        <vehicle id="f0" x="164.010000" y="-3.600000" angle="90.000000" speed="13.890000" pos="164.010000" lane="e0_0" acceleration="0.000000" posLat="0.000000"/>
        <vehicle id="f1" x="58.937531" y="-6.299500" angle="90.000000" speed="11.240531" pos="58.937531" lane="e0_0" acceleration="2.600000" posLat="-2.699500"/>
        <vehicle id="f2" x="23.697000" y="-1.499500" angle="90.000000" speed="9.248500" pos="23.697000" lane="e0_0" acceleration="2.600000" posLat="2.100500"/>
        <vehicle id="s0" x="64.598000" y="-3.600000" angle="90.000000" speed="6.000000" pos="64.598000" lane="e0_0" acceleration="0.000000" posLat="0.000000"/>
        <vehicle id="s1" x="34.598000" y="-3.600000" angle="90.000000" speed="6.000000" pos="34.598000" lane="e0_0" acceleration="0.000000" posLat="0.000000"/>
        <vehicle id="s2" x="4.598000" y="-3.600000" angle="90.000000" speed="3.599000" pos="4.598000" lane="e0_0" acceleration="2.600000" posLat="0.000000"/>
    </timestep>
    <timestep time="15.000">
        <vehicle id="f0" x="177.900000" y="-3.600000" angle="90.000000" speed="13.890000" pos="177.900000" lane="e0_0" acceleration="0.000000" posLat="0.000000"/>
        <vehicle id="f1" x="72.778063" y="-6.299500" angle="90.000000" speed="13.840531" pos="72.778063" lane="e0_0" acceleration="2.600000" posLat="-2.699500"/>
        <vehicle id="f2" x="35.545500" y="-0.900500" angle="87.105880" speed="11.848500" pos="35.545500" lane="e0_0" acceleration="2.600000" posLat="2.699500"/>
        <vehicle id="f3" x="0.000000" y="-3.600000" angle="90.000000" speed="0.000000" pos="0.000000" lane="e0_0" acceleration="0.000000" posLat="0.000000"/>
        <vehicle id="s0" x="70.598000" y="-3.298500" angle="87.123307" speed="6.000000" pos="70.598000" lane="e0_0" acceleration="0.000000" posLat="0.301500"/>
        <vehicle id="s1" x="40.598000" y="-3.600000" angle="90.000000" speed="6.000000" pos="40.598000" lane="e0_0" acceleration="0.000000" posLat="0.000000"/>
        <vehicle id="s2" x="10.598000" y="-3.600000" angle="90.000000" speed="6.000000" pos="10.598000" lane="e0_0" acceleration="2.401000" posLat="0.000000"/>
    </timestep>
    <timestep time="16.000">
        <vehicle id="f0" x="191.790000" y="-3.600000" angle="90.000000" speed="13.890000" pos="191.790000" lane="e0_0" acceleration="0.000000" posLat="0.000000"/>
        <vehicle id="f1" x="86.668063" y="-6.299500" angle="90.000000" speed="13.890000" pos="86.668063" lane="e0_0" acceleration="0.049469" posLat="-2.699500"/>
        <vehicle id="f2" x="49.435500" y="-0.900500" angle="90.000000" speed="13.890000" pos="49.435500" lane="e0_0" acceleration="2.041500" posLat="2.699500"/>
        <vehicle id="f3" x="2.600000" y="-2.600000" angle="78.463041" speed="2.600000" pos="2.600000" lane="e0_0" acceleration="2.600000" posLat="1.000000"/>
        <vehicle id="s0" x="76.598000" y="-3.600000" angle="92.876693" speed="6.000000" pos="76.598000" lane="e0_0" acceleration="0.000000" posLat="0.000000"/>
        <vehicle id="s1" x="46.598000" y="-3.901500" angle="92.876693" speed="6.000000" pos="46.598000" lane="e0_0" acceleration="0.000000" posLat="-0.301500"/>
        <vehicle id="s2" x="16.598000" y="-3.600000" angle="90.000000" speed="6.000000" pos="16.598000" lane="e0_0" acceleration="0.000000" posLat="0.000000"/>
    </timestep>
    <timestep time="17.000">
        <vehicle id="f0" x="205.680000" y="-3.600000" angle="90.000000" speed="13.890000" pos="205.680000" lane="e0_0" acceleration="0.000000" posLat="0.000000"/>
        <vehicle id="f1" x="100.558063" y="-5.299500" angle="85.882139" speed="13.890000" pos="100.558063" lane="e0_0" acceleration="0.000000" posLat="-1.699500"/>
        <vehicle id="f2" x="63.325500" y="-0.900500" angle="90.000000" speed="13.890000" pos="63.325500" lane="e0_0" acceleration="0.000000" posLat="2.699500"/>
        <vehicle id="f3" x="7.800000" y="-1.600000" angle="79.114473" speed="5.200000" pos="7.800000" lane="e0_0" acceleration="2.600000" posLat="2.000000"/>
        <vehicle id="s0" x="82.598000" y="-3.600000" angle="90.000000" speed="6.000000" pos="82.598000" lane="e0_0" acceleration="0.000000" posLat="0.000000"/>
        <vehicle id="s1" x="52.598000" y="-3.600000" angle="87.123307" speed="6.000000" pos="52.598000" lane="e0_0" acceleration="0.000000" posLat="0.000000"/>
        <vehicle id="s2" x="22.598000" y="-3.600000" angle="90.000000" speed="6.000000" pos="22.598000" lane="e0_0" acceleration="0.000000" posLat="0.000000"/>
        <vehicle id="s3" x="0.000000" y="-3.600000" angle="90.000000" speed="0.000000" pos="0.000000" lane="e0_0" acceleration="0.000000" posLat="0.000000"/>
    </timestep>
    <timestep time="18.000">
        <vehicle id="f0" x="219.570000" y="-3.600000" angle="90.000000" speed="13.890000" pos="219.570000" lane="e0_0" acceleration="0.000000" posLat="0.000000"/>
        <vehicle id="f1" x="114.448063" y="-4.299500" angle="85.882139" speed="13.890000" pos="114.448063" lane="e0_0" acceleration="0.000000" posLat="-0.699500"/>
        <vehicle id="f2" x="77.215500" y="-0.900500" angle="90.000000" speed="13.890000" pos="77.215500" lane="e0_0" acceleration="0.000000" posLat="2.699500"/>
        <vehicle id="f3" x="14.448500" y="-1.499500" angle="89.133972" speed="6.648500" pos="14.448500" lane="e0_0" acceleration="1.448500" posLat="2.100500"/>
        <vehicle id="s0" x="88.598000" y="-3.600000" angle="90.000000" speed="6.000000" pos="88.598000" lane="e0_0" acceleration="0.000000" posLat="0.000000"/>
        <vehicle id="s1" x="58.598000" y="-3.600000" angle="90.000000" speed="6.000000" pos="58.598000" lane="e0_0" acceleration="0.000000" posLat="0.000000"/>
        <vehicle id="s2" x="28.598000" y="-3.600000" angle="90.000000" speed="6.000000" pos="28.598000" lane="e0_0" acceleration="0.000000" posLat="0.000000"/>
        <vehicle id="s3" x="0.999000" y="-3.600000" angle="90.000000" speed="0.999000" pos="0.999000" lane="e0_0" acceleration="0.999000" posLat="0.000000"/>
    </timestep>
    <timestep time="19.000">
        <vehicle id="f0" x="233.460000" y="-3.600000" angle="90.000000" speed="13.890000" pos="233.460000" lane="e0_0" acceleration="0.000000" posLat="0.000000"/>
        <vehicle id="f1" x="128.338063" y="-3.600000" angle="87.117022" speed="13.890000" pos="128.338063" lane="e0_0" acceleration="0.000000" posLat="0.000000"/>
        <vehicle id="f2" x="91.105500" y="-0.900500" angle="90.000000" speed="13.890000" pos="91.105500" lane="e0_0" acceleration="0.000000" posLat="2.699500"/>
        <vehicle id="f3" x="23.697000" y="-1.499500" angle="90.000000" speed="9.248500" pos="23.697000" lane="e0_0" acceleration="2.600000" posLat="2.100500"/>
        <vehicle id="s0" x="94.598000" y="-3.600000" angle="90.000000" speed="6.000000" pos="94.598000" lane="e0_0" acceleration="0.000000" posLat="0.000000"/>
        <vehicle id="s1" x="64.598000" y="-3.600000" angle="90.000000" speed="6.000000" pos="64.598000" lane="e0_0" acceleration="0.000000" posLat="0.000000"/>
        <vehicle id="s2" x="34.598000" y="-3.600000" angle="90.000000" speed="6.000000" pos="34.598000" lane="e0_0" acceleration="0.000000" posLat="0.000000"/>
        <vehicle id="s3" x="4.598000" y="-3.600000" angle="90.000000" speed="3.599000" pos="4.598000" lane="e0_0" acceleration="2.600000" posLat="0.000000"/>
    </timestep>
    <timestep time="20.000">
        <vehicle id="f0" x="247.350000" y="-3.600000" angle="90.000000" speed="13.890000" pos="247.350000" lane="e0_0" acceleration="0.000000" posLat="0.000000"/>
        <vehicle id="f1" x="142.228063" y="-3.600000" angle="90.000000" speed="13.890000" pos="142.228063" lane="e0_0" acceleration="0.000000" posLat="0.000000"/>
        <vehicle id="f2" x="104.995500" y="-0.900500" angle="90.000000" speed="13.890000" pos="104.995500" lane="e0_0" acceleration="0.000000" posLat="2.699500"/>
        <vehicle id="f3" x="35.545500" y="-0.900500" angle="87.105880" speed="11.848500" pos="35.545500" lane="e0_0" acceleration="2.600000" posLat="2.699500"/>
        <vehicle id="s0" x="100.598000" y="-3.901500" angle="92.876693" speed="6.000000" pos="100.598000" lane="e0_0" acceleration="0.000000" posLat="-0.301500"/>
        <vehicle id="s1" x="70.598000" y="-3.600000" angle="90.000000" speed="6.000000" pos="70.598000" lane="e0_0" acceleration="0.000000" posLat="0.000000"/>
        <vehicle id="s2" x="40.598000" y="-3.600000" angle="90.000000" speed="6.000000" pos="40.598000" lane="e0_0" acceleration="0.000000" posLat="0.000000"/>
        <vehicle id="s3" x="10.598000" y="-3.600000" angle="90.000000" speed="6.000000" pos="10.598000" lane="e0_0" acceleration="2.401000" posLat="0.000000"/>
    </timestep>
    <timestep time="21.000">
        <vehicle id="f0" x="261.240000" y="-3.600000" angle="90.000000" speed="13.890000" pos="261.240000" lane="e0_0" acceleration="0.000000" posLat="0.000000"/>
        <vehicle id="f1" x="156.118063" y="-3.600000" angle="90.000000" speed="13.890000" pos="156.118063" lane="e0_0" acceleration="0.000000" posLat="0.000000"/>
        <vehicle id="f2" x="118.885500" y="-0.900500" angle="90.000000" speed="13.890000" pos="118.885500" lane="e0_0" acceleration="0.000000" posLat="2.699500"/>
        <vehicle id="f3" x="49.435500" y="-0.900500" angle="90.000000" speed="13.890000" pos="49.435500" lane="e0_0" acceleration="2.041500" posLat="2.699500"/>
        <vehicle id="s0" x="106.598000" y="-3.600000" angle="87.123307" speed="6.000000" pos="106.598000" lane="e0_0" acceleration="0.000000" posLat="0.000000"/>
        <vehicle id="s1" x="76.598000" y="-3.600000" angle="90.000000" speed="6.000000" pos="76.598000" lane="e0_0" acceleration="0.000000" posLat="0.000000"/>
        <vehicle id="s2" x="46.598000" y="-3.901500" angle="92.876693" speed="6.000000" pos="46.598000" lane="e0_0" acceleration="0.000000" posLat="-0.301500"/>
        <vehicle id="s3" x="16.598000" y="-3.600000" angle="90.000000" speed="6.000000" pos="16.598000" lane="e0_0" acceleration="0.000000" posLat="0.000000"/>
    </timestep>
    <timestep time="22.000">
        <vehicle id="f0" x="275.130000" y="-3.600000" angle="90.000000" speed="13.890000" pos="275.130000" lane="e0_0" acceleration="0.000000" posLat="0.000000"/>
        <vehicle id="f1" x="170.008062" y="-3.600000" angle="90.000000" speed="13.890000" pos="170.008062" lane="e0_0" acceleration="0.000000" posLat="0.000000"/>
        <vehicle id="f2" x="132.775500" y="-1.900500" angle="94.117861" speed="13.890000" pos="132.775500" lane="e0_0" acceleration="0.000000" posLat="1.699500"/>
        <vehicle id="f3" x="63.325500" y="-0.900500" angle="90.000000" speed="13.890000" pos="63.325500" lane="e0_0" acceleration="0.000000" posLat="2.699500"/>
        <vehicle id="s0" x="112.598000" y="-3.600000" angle="90.000000" speed="6.000000" pos="112.598000" lane="e0_0" acceleration="0.000000" posLat="0.000000"/>
        <vehicle id="s1" x="82.598000" y="-3.600000" angle="90.000000" speed="6.000000" pos="82.598000" lane="e0_0" acceleration="0.000000" posLat="0.000000"/>
        <vehicle id="s2" x="52.598000" y="-3.600000" angle="87.123307" speed="6.000000" pos="52.598000" lane="e0_0" acceleration="0.000000" posLat="0.000000"/>
        <vehicle id="s3" x="22.598000" y="-3.600000" angle="90.000000" speed="6.000000" pos="22.598000" lane="e0_0" acceleration="0.000000" posLat="0.000000"/>
    </timestep>
    <timestep time="23.000">
        <vehicle id="f0" x="289.020000" y="-3.600000" angle="90.000000" speed="13.890000" pos="289.020000" lane="e0_0" acceleration="0.000000" posLat="0.000000"/>
        <vehicle id="f1" x="183.898062" y="-3.600000" angle="90.000000" speed="13.890000" pos="183.898062" lane="e0_0" acceleration="0.000000" posLat="0.000000"/>
        <vehicle id="f2" x="146.665500" y="-2.900500" angle="94.117861" speed="13.890000" pos="146.665500" lane="e0_0" acceleration="0.000000" posLat="0.699500"/>
        <vehicle id="f3" x="77.215500" y="-0.900500" angle="90.000000" speed="13.890000" pos="77.215500" lane="e0_0" acceleration="0.000000" posLat="2.699500"/>
        <vehicle id="s0" x="118.598000" y="-3.600000" angle="90.000000" speed="6.000000" pos="118.598000" lane="e0_0" acceleration="0.000000" posLat="0.000000"/>
        <vehicle id="s1" x="88.598000" y="-3.600000" angle="90.000000" speed="6.000000" pos="88.598000" lane="e0_0" acceleration="0.000000" posLat="0.000000"/>
        <vehicle id="s2" x="58.598000" y="-3.600000" angle="90.000000" speed="6.000000" pos="58.598000" lane="e0_0" acceleration="0.000000" posLat="0.000000"/>
        <vehicle id="s3" x="28.598000" y="-3.600000" angle="90.000000" speed="6.000000" pos="28.598000" lane="e0_0" acceleration="0.000000" posLat="0.000000"/>
    </timestep>
    <timestep time="24.000">
        <vehicle id="f0" x="302.910000" y="-3.600000" angle="90.000000" speed="13.890000" pos="302.910000" lane="e0_0" acceleration="0.000000" posLat="0.000000"/>
        <vehicle id="f1" x="197.788062" y="-3.600000" angle="90.000000" speed="13.890000" pos="197.788062" lane="e0_0" acceleration="0.000000" posLat="0.000000"/>
        <vehicle id="f2" x="160.555500" y="-3.600000" angle="92.882978" speed="13.890000" pos="160.555500" lane="e0_0" acceleration="0.000000" posLat="0.000000"/>
        <vehicle id="f3" x="91.105500" y="-0.900500" angle="90.000000" speed="13.890000" pos="91.105500" lane="e0_0" acceleration="0.000000" posLat="2.699500"/>
        <vehicle id="s0" x="124.598000" y="-3.600000" angle="90.000000" speed="6.000000" pos="124.598000" lane="e0_0" acceleration="0.000000" posLat="0.000000"/>
        <vehicle id="s1" x="94.598000" y="-3.600000" angle="90.000000" speed="6.000000" pos="94.598000" lane="e0_0" acceleration="0.000000" posLat="0.000000"/>
        <vehicle id="s2" x="64.598000" y="-3.600000" angle="90.000000" speed="6.000000" pos="64.598000" lane="e0_0" acceleration="0.000000" posLat="0.000000"/>
        <vehicle id="s3" x="34.598000" y="-3.600000" angle="90.000000" speed="6.000000" pos="34.598000" lane="e0_0" acceleration="0.000000" posLat="0.000000"/>
    </timestep>
    <timestep time="25.000">
        <vehicle id="f0" x="316.800000" y="-3.600000" angle="90.000000" speed="13.890000" pos="316.800000" lane="e0_0" acceleration="0.000000" posLat="0.000000"/>
        <vehicle id="f1" x="211.678062" y="-3.600000" angle="90.000000" speed="13.890000" pos="211.678062" lane="e0_0" acceleration="0.000000" posLat="0.000000"/>
        <vehicle id="f2" x="174.445500" y="-3.600000" angle="90.000000" speed="13.890000" pos="174.445500" lane="e0_0" acceleration="0.000000" posLat="0.000000"/>
        <vehicle id="f3" x="104.995500" y="-0.900500" angle="90.000000" speed="13.890000" pos="104.995500" lane="e0_0" acceleration="0.000000" posLat="2.699500"/>
        <vehicle id="s0" x="130.598000" y="-3.600000" angle="90.000000" speed="6.000000" pos="130.598000" lane="e0_0" acceleration="0.000000" posLat="0.000000"/>
        <vehicle id="s1" x="100.598000" y="-3.901500" angle="92.876693" speed="6.000000" pos="100.598000" lane="e0_0" acceleration="0.000000" posLat="-0.301500"/>
        <vehicle id="s2" x="70.598000" y="-3.600000" angle="90.000000" speed="6.000000" pos="70.598000" lane="e0_0" acceleration="0.000000" posLat="0.000000"/>
        <vehicle id="s3" x="40.598000" y="-3.600000" angle="90.000000" speed="6.000000" pos="40.598000" lane="e0_0" acceleration="0.000000" posLat="0.000000"/>
    </timestep>
    <timestep time="26.000">
        <vehicle id="f0" x="330.690000" y="-3.600000" angle="90.000000" speed="13.890000" pos="330.690000" lane="e0_0" acceleration="0.000000" posLat="0.000000"/>
        <vehicle id="f1" x="225.568062" y="-3.600000" angle="90.000000" speed="13.890000" pos="225.568062" lane="e0_0" acceleration="0.000000" posLat="0.000000"/>
        <vehicle id="f2" x="188.335500" y="-3.600000" angle="90.000000" speed="13.890000" pos="188.335500" lane="e0_0" acceleration="0.000000" posLat="0.000000"/>
        <vehicle id="f3" x="118.885500" y="-0.900500" angle="90.000000" speed="13.890000" pos="118.885500" lane="e0_0" acceleration="0.000000" posLat="2.699500"/>
        <vehicle id="s0" x="136.598000" y="-3.600000" angle="90.000000" speed="6.000000" pos="136.598000" lane="e0_0" acceleration="0.000000" posLat="0.000000"/>
        <vehicle id="s1" x="106.598000" y="-3.600000" angle="87.123307" speed="6.000000" pos="106.598000" lane="e0_0" acceleration="0.000000" posLat="0.000000"/>
        <vehicle id="s2" x="76.598000" y="-3.600000" angle="90.000000" speed="6.000000" pos="76.598000" lane="e0_0" acceleration="0.000000" posLat="0.000000"/>
        <vehicle id="s3" x="46.598000" y="-3.600000" angle="90.000000" speed="6.000000" pos="46.598000" lane="e0_0" acceleration="0.000000" posLat="0.000000"/>
    </timestep>
    <timestep time="27.000">
        <vehicle id="f0" x="344.580000" y="-3.600000" angle="90.000000" speed="13.890000" pos="344.580000" lane="e0_0" acceleration="0.000000" posLat="0.000000"/>
        <vehicle id="f1" x="239.458062" y="-3.600000" angle="90.000000" speed="13.890000" pos="239.458062" lane="e0_0" acceleration="0.000000" posLat="0.000000"/>
        <vehicle id="f2" x="202.225500" y="-3.600000" angle="90.000000" speed="13.890000" pos="202.225500" lane="e0_0" acceleration="0.000000" posLat="0.000000"/>
        <vehicle id="f3" x="132.775500" y="-0.900500" angle="90.000000" speed="13.890000" pos="132.775500" lane="e0_0" acceleration="0.000000" posLat="2.699500"/>
        <vehicle id="s0" x="142.598000" y="-3.600000" angle="90.000000" speed="6.000000" pos="142.598000" lane="e0_0" acceleration="0.000000" posLat="0.000000"/>
        <vehicle id="s1" x="112.598000" y="-3.600000" angle="90.000000" speed="6.000000" pos="112.598000" lane="e0_0" acceleration="0.000000" posLat="0.000000"/>
        <vehicle id="s2" x="82.598000" y="-3.600000" angle="90.000000" speed="6.000000" pos="82.598000" lane="e0_0" acceleration="0.000000" posLat="0.000000"/>
        <vehicle id="s3" x="52.598000" y="-3.600000" angle="90.000000" speed="6.000000" pos="52.598000" lane="e0_0" acceleration="0.000000" posLat="0.000000"/>
    </timestep>
    <timestep time="28.000">
        <vehicle id="f0" x="358.470000" y="-3.600000" angle="90.000000" speed="13.890000" pos="358.470000" lane="e0_0" acceleration="0.000000" posLat="0.000000"/>
        <vehicle id="f1" x="253.348062" y="-3.600000" angle="90.000000" speed="13.890000" pos="253.348062" lane="e0_0" acceleration="0.000000" posLat="0.000000"/>
        <vehicle id="f2" x="216.115500" y="-3.600000" angle="90.000000" speed="13.890000" pos="216.115500" lane="e0_0" acceleration="0.000000" posLat="0.000000"/>
        <vehicle id="f3" x="146.665500" y="-0.900500" angle="90.000000" speed="13.890000" pos="146.665500" lane="e0_0" acceleration="0.000000" posLat="2.699500"/>
        <vehicle id="s0" x="148.598000" y="-3.901500" angle="92.876693" speed="6.000000" pos="148.598000" lane="e0_0" acceleration="0.000000" posLat="-0.301500"/>
        <vehicle id="s1" x="118.598000" y="-3.600000" angle="90.000000" speed="6.000000" pos="118.598000" lane="e0_0" acceleration="0.000000" posLat="0.000000"/>
        <vehicle id="s2" x="88.598000" y="-3.600000" angle="90.000000" speed="6.000000" pos="88.598000" lane="e0_0" acceleration="0.000000" posLat="0.000000"/>
        <vehicle id="s3" x="58.598000" y="-3.600000" angle="90.000000" speed="6.000000" pos="58.598000" lane="e0_0" acceleration="0.000000" posLat="0.000000"/>
    </timestep>
    <timestep time="29.000">
        <vehicle id="f0" x="372.360000" y="-3.600000" angle="90.000000" speed="13.890000" pos="372.360000" lane="e0_0" acceleration="0.000000" posLat="0.000000"/>
        <vehicle id="f1" x="267.238062" y="-3.600000" angle="90.000000" speed="13.890000" pos="267.238062" lane="e0_0" acceleration="0.000000" posLat="0.000000"/>
        <vehicle id="f2" x="230.005500" y="-3.600000" angle="90.000000" speed="13.890000" pos="230.005500" lane="e0_0" acceleration="0.000000" posLat="0.000000"/>
        <vehicle id="f3" x="160.555500" y="-0.900500" angle="90.000000" speed="13.890000" pos="160.555500" lane="e0_0" acceleration="0.000000" posLat="2.699500"/>
        <vehicle id="s0" x="154.598000" y="-3.901500" angle="90.000000" speed="6.000000" pos="154.598000" lane="e0_0" acceleration="0.000000" posLat="-0.301500"/>
        <vehicle id="s1" x="124.598000" y="-3.600000" angle="90.000000" speed="6.000000" pos="124.598000" lane="e0_0" acceleration="0.000000" posLat="0.000000"/>