<?xml version="1.0" encoding="UTF-8"?>

<!-- generated on 2026-07-17 15:10:30 by Eclipse SUMO sumo Version 1.20.0
<configuration xmlns:xsi="http://www.w3.org/2001/XMLSchema-instance" xsi:noNamespaceSchemaLocation="http://sumo.dlr.de/xsd/sumoConfiguration.xsd">

    <input>
        <net-file value="net.net.xml"/>
        <route-files value="rou.rou.xml"/>
    </input>

    <output>
        <precision value="6"/>
        <fcd-output value="golden.fcd.xml"/>
        <fcd-output.acceleration value="true"/>
        <summary-output value="golden.summary.xml"/>
        <statistic-output value="golden.statistic.xml"/>
        <save-state.times value="1"/>
        <save-state.files value="golden.state.xml"/>
    </output>

    <time>
        <begin value="0"/>
        <end value="300"/>
        <step-length value="1"/>
    </time>

    <processing>
        <step-method.ballistic value="false"/>
        <collision.action value="none"/>
        <time-to-teleport value="-1"/>
        <default.action-step-length value="1"/>
        <default.speeddev value="0"/>
    </processing>

    <routing>
        <routing-algorithm value="astar"/>
        <device.rerouting.probability value="1.0"/>
        <device.rerouting.period value="30"/>
        <device.rerouting.adaptation-steps value="18"/>
    </routing>

    <report>
        <no-step-log value="true"/>
    </report>

    <random_number>
        <seed value="42"/>
    </random_number>

</configuration>
-->

<fcd-export xmlns:xsi="http://www.w3.org/2001/XMLSchema-instance" xsi:noNamespaceSchemaLocation="http://sumo.dlr.de/xsd/fcd_file.xsd">
    <timestep time="0.000">
        <vehicle id="f.0" x="0.000000" y="345.200000" angle="90.000000" type="car" speed="0.000000" pos="0.000000" lane="e_src_0" slope="0.000000" acceleration="0.000000"/>
    </timestep>
    <timestep time="1.000">
        <vehicle id="f.0" x="2.600000" y="345.200000" angle="90.000000" type="car" speed="2.600000" pos="2.600000" lane="e_src_0" slope="0.000000" acceleration="2.600000"/>
    </timestep>
    <timestep time="2.000">
        <vehicle id="f.0" x="7.800000" y="345.200000" angle="90.000000" type="car" speed="5.200000" pos="7.800000" lane="e_src_0" slope="0.000000" acceleration="2.600000"/>
    </timestep>
    <timestep time="3.000">
        <vehicle id="f.0" x="15.600000" y="345.200000" angle="90.000000" type="car" speed="7.800000" pos="15.600000" lane="e_src_0" slope="0.000000" acceleration="2.600000"/>
        <vehicle id="f.1" x="0.000000" y="345.200000" angle="90.000000" type="car" speed="0.000000" pos="0.000000" lane="e_src_0" slope="0.000000" acceleration="0.000000"/>
    </timestep>
    <timestep time="4.000">
        <vehicle id="f.0" x="26.000000" y="345.200000" angle="90.000000" type="car" speed="10.400000" pos="26.000000" lane="e_src_0" slope="0.000000" acceleration="2.600000"/>
        <vehicle id="f.1" x="2.600000" y="345.200000" angle="90.000000" type="car" speed="2.600000" pos="2.600000" lane="e_src_0" slope="0.000000" acceleration="2.600000"/>
    </timestep>
    <timestep time="5.000">
        <vehicle id="f.0" x="39.000000" y="345.200000" angle="90.000000" type="car" speed="13.000000" pos="39.000000" lane="e_src_0" slope="0.000000" acceleration="2.600000"/>
        <vehicle id="f.1" x="7.800000" y="345.200000" angle="90.000000" type="car" speed="5.200000" pos="7.800000" lane="e_src_0" slope="0.000000" acceleration="2.600000"/>
    </timestep>
    <timestep time="6.000">
        <vehicle id="f.0" x="52.890000" y="345.200000" angle="90.000000" type="car" speed="13.890000" pos="52.890000" lane="e_src_0" slope="0.000000" acceleration="0.890000"/>
        <vehicle id="f.1" x="15.600000" y="345.200000" angle="90.000000" type="car" speed="7.800000" pos="15.600000" lane="e_src_0" slope="0.000000" acceleration="2.600000"/>
        <vehicle id="f.2" x="0.000000" y="345.200000" angle="90.000000" type="car" speed="0.000000" pos="0.000000" lane="e_src_0" slope="0.000000" acceleration="0.000000"/>
    </timestep>
    <timestep time="7.000">
        <vehicle id="f.0" x="66.780000" y="345.200000" angle="90.000000" type="car" speed="13.890000" pos="66.780000" lane="e_src_0" slope="0.000000" acceleration="0.000000"/>
        <vehicle id="f.1" x="26.000000" y="345.200000" angle="90.000000" type="car" speed="10.400000" pos="26.000000" lane="e_src_0" slope="0.000000" acceleration="2.600000"/>
        <vehicle id="f.2" x="2.600000" y="345.200000" angle="90.000000" type="car" speed="2.600000" pos="2.600000" lane="e_src_0" slope="0.000000" acceleration="2.600000"/>
    </timestep>
    <timestep time="8.000">
        <vehicle id="f.0" x="80.670000" y="345.200000" angle="90.000000" type="car" speed="13.890000" pos="80.670000" lane="e_src_0" slope="0.000000" acceleration="0.000000"/>
        <vehicle id="f.1" x="39.000000" y="345.200000" angle="90.000000" type="car" speed="13.000000" pos="39.000000" lane="e_src_0" slope="0.000000" acceleration="2.600000"/>
        <vehicle id="f.2" x="7.800000" y="345.200000" angle="90.000000" type="car" speed="5.200000" pos="7.800000" lane="e_src_0" slope="0.000000" acceleration="2.600000"/>
    </timestep>
    <timestep time="9.000">
        <vehicle id="f.0" x="94.560000" y="345.200000" angle="90.000000" type="car" speed="13.890000" pos="94.560000" lane="e_src_0" slope="0.000000" acceleration="0.000000"/>
        <vehicle id="f.1" x="52.890000" y="345.200000" angle="90.000000" type="car" speed="13.890000" pos="52.890000" lane="e_src_0" slope="0.000000" acceleration="0.890000"/>
        <vehicle id="f.2" x="15.600000" y="345.200000" angle="90.000000" type="car" speed="7.800000" pos="15.600000" lane="e_src_0" slope="0.000000" acceleration="2.600000"/>
        <vehicle id="f.3" x="0.000000" y="345.200000" angle="90.000000" type="car" speed="0.000000" pos="0.000000" lane="e_src_0" slope="0.000000" acceleration="0.000000"/>
    </timestep>
    <timestep time="10.000">
        <vehicle id="f.0" x="108.450000" y="345.200000" angle="90.000000" type="car" speed="13.890000" pos="108.450000" lane="e_src_0" slope="0.000000" acceleration="0.000000"/>
        <vehicle id="f.1" x="66.780000" y="345.200000" angle="90.000000" type="car" speed="13.890000" pos="66.780000" lane="e_src_0" slope="0.000000" acceleration="0.000000"/>
        <vehicle id="f.2" x="26.000000" y="345.200000" angle="90.000000" type="car" speed="10.400000" pos="26.000000" lane="e_src_0" slope="0.000000" acceleration="2.600000"/>
        <vehicle id="f.3" x="2.600000" y="345.200000" angle="90.000000" type="car" speed="2.600000" pos="2.600000" lane="e_src_0" slope="0.000000" acceleration="2.600000"/>
    </timestep>
    <timestep time="11.000">
        <vehicle id="f.0" x="122.340000" y="345.200000" angle="90.000000" type="car" speed="13.890000" pos="122.340000" lane="e_src_0" slope="0.000000" acceleration="0.000000"/>
        <vehicle id="f.1" x="80.670000" y="345.200000" angle="90.000000" type="car" speed="13.890000" pos="80.670000" lane="e_src_0" slope="0.000000" acceleration="0.000000"/>
        <vehicle id="f.2" x="39.000000" y="345.200000" angle="90.000000" type="car" speed="13.000000" pos="39.000000" lane="e_src_0" slope="0.000000" acceleration="2.600000"/>
        <vehicle id="f.3" x="7.800000" y="345.200000" angle="90.000000" type="car" speed="5.200000" pos="7.800000" lane="e_src_0" slope="0.000000" acceleration="2.600000"/>
    </timestep>
    <timestep time="12.000">
        <vehicle id="f.0" x="136.230000" y="345.200000" angle="90.000000" type="car" speed="13.890000" pos="136.230000" lane="e_src_0" slope="0.000000" acceleration="0.000000"/>
        <vehicle id="f.1" x="94.560000" y="345.200000" angle="90.000000" type="car" speed="13.890000" pos="94.560000" lane="e_src_0" slope="0.000000" acceleration="0.000000"/>
        <vehicle id="f.2" x="52.890000" y="345.200000" angle="90.000000" type="car" speed="13.890000" pos="52.890000" lane="e_src_0" slope="0.000000" acceleration="0.890000"/>
        <vehicle id="f.3" x="15.600000" y="345.200000" angle="90.000000" type="car" speed="7.800000" pos="15.600000" lane="e_src_0" slope="0.000000" acceleration="2.600000"/>
        <vehicle id="f.4" x="0.000000" y="345.200000" angle="90.000000" type="car" speed="0.000000" pos="0.000000" lane="e_src_0" slope="0.000000" acceleration="0.000000"/>
    </timestep>
    <timestep time="13.000">
        <vehicle id="f.0" x="150.120000" y="345.200000" angle="90.000000" type="car" speed="13.890000" pos="150.120000" lane="e_src_0" slope="0.000000" acceleration="0.000000"/>
        <vehicle id="f.1" x="108.450000" y="345.200000" angle="90.000000" type="car" speed="13.890000" pos="108.450000" lane="e_src_0" slope="0.000000" acceleration="0.000000"/>
        <vehicle id="f.2" x="66.780000" y="345.200000" angle="90.000000" type="car" speed="13.890000" pos="66.780000" lane="e_src_0" slope="0.000000" acceleration="0.000000"/>
        <vehicle id="f.3" x="26.000000" y="345.200000" angle="90.000000" type="car" speed="10.400000" pos="26.000000" lane="e_src_0" slope="0.000000" acceleration="2.600000"/>
        <vehicle id="f.4" x="2.600000" y="345.200000" angle="90.000000" type="car" speed="2.600000" pos="2.600000" lane="e_src_0" slope="0.000000" acceleration="2.600000"/>
    </timestep>
    <timestep time="14.000">
        <vehicle id="f.0" x="164.010000" y="345.200000" angle="90.000000" type="car" speed="13.890000" pos="164.010000" lane="e_src_0" slope="0.000000" acceleration="0.000000"/>
        <vehicle id="f.1" x="122.340000" y="345.200000" angle="90.000000" type="car" speed="13.890000" pos="122.340000" lane="e_src_0" slope="0.000000" acceleration="0.000000"/>
        <vehicle id="f.2" x="80.670000" y="345.200000" angle="90.000000" type="car" speed="13.890000" pos="80.670000" lane="e_src_0" slope="0.000000" acceleration="0.000000"/>
        <vehicle id="f.3" x="39.000000" y="345.200000" angle="90.000000" type="car" speed="13.000000" pos="39.000000" lane="e_src_0" slope="0.000000" acceleration="2.600000"/>
        <vehicle id="f.4" x="7.800000" y="345.200000" angle="90.000000" type="car" speed="5.200000" pos="7.800000" lane="e_src_0" slope="0.000000" acceleration="2.600000"/>
    </timestep>
    <timestep time="15.000">
        <vehicle id="f.0" x="177.900000" y="345.200000" angle="90.000000" type="car" speed="13.890000" pos="177.900000" lane="e_src_0" slope="0.000000" acceleration="0.000000"/>
        <vehicle id="f.1" x="136.230000" y="345.200000" angle="90.000000" type="car" speed="13.890000" pos="136.230000" lane="e_src_0" slope="0.000000" acceleration="0.000000"/>
        <vehicle id="f.2" x="94.560000" y="345.200000" angle="90.000000" type="car" speed="13.890000" pos="94.560000" lane="e_src_0" slope="0.000000" acceleration="0.000000"/>
        <vehicle id="f.3" x="52.890000" y="345.200000" angle="90.000000" type="car" speed="13.890000" pos="52.890000" lane="e_src_0" slope="0.000000" acceleration="0.890000"/>
        <vehicle id="f.4" x="15.600000" y="345.200000" angle="90.000000" type="car" speed="7.800000" pos="15.600000" lane="e_src_0" slope="0.000000" acceleration="2.600000"/>
        <vehicle id="f.5" x="0.000000" y="345.200000" angle="90.000000" type="car" speed="0.000000" pos="0.000000" lane="e_src_0" slope="0.000000" acceleration="0.000000"/>
    </timestep>
    <timestep time="16.000">
        <vehicle id="f.0" x="191.790000" y="345.200000" angle="90.000000" type="car" speed="13.890000" pos="191.790000" lane="e_src_0" slope="0.000000" acceleration="0.000000"/>
        <vehicle id="f.1" x="150.120000" y="345.200000" angle="90.000000" type="car" speed="13.890000" pos="150.120000" lane="e_src_0" slope="0.000000" acceleration="0.000000"/>
        <vehicle id="f.2" x="108.450000" y="345.200000" angle="90.000000" type="car" speed="13.890000" pos="108.450000" lane="e_src_0" slope="0.000000" acceleration="0.000000"/>
        <vehicle id="f.3" x="66.780000" y="345.200000" angle="90.000000" type="car" speed="13.890000" pos="66.780000" lane="e_src_0" slope="0.000000" acceleration="0.000000"/>
        <vehicle id="f.4" x="26.000000" y="345.200000" angle="90.000000" type="car" speed="10.400000" pos="26.000000" lane="e_src_0" slope="0.000000" acceleration="2.600000"/>
        <vehicle id="f.5" x="2.600000" y="345.200000" angle="90.000000" type="car" speed="2.600000" pos="2.600000" lane="e_src_0" slope="0.000000" acceleration="2.600000"/>
    </timestep>
    <timestep time="17.000">
        <vehicle id="f.0" x="205.680000" y="345.200000" angle="90.000000" type="car" speed="13.890000" pos="205.680000" lane="e_src_0" slope="0.000000" acceleration="0.000000"/>
        <vehicle id="f.1" x="164.010000" y="345.200000" angle="90.000000" type="car" speed="13.890000" pos="164.010000" lane="e_src_0" slope="0.000000" acceleration="0.000000"/>
        <vehicle id="f.2" x="122.340000" y="345.200000" angle="90.000000" type="car" speed="13.890000" pos="122.340000" lane="e_src_0" slope="0.000000" acceleration="0.000000"/>
        <vehicle id="f.3" x="80.670000" y="345.200000" angle="90.000000" type="car" speed="13.890000" pos="80.670000" lane="e_src_0" slope="0.000000" acceleration="0.000000"/>
        <vehicle id="f.4" x="39.000000" y="345.200000" angle="90.000000" type="car" speed="13.000000" pos="39.000000" lane="e_src_0" slope="0.000000" acceleration="2.600000"/>
        <vehicle id="f.5" x="7.800000" y="345.200000" angle="90.000000" type="car" speed="5.200000" pos="7.800000" lane="e_src_0" slope="0.000000" acceleration="2.600000"/>
    </timestep>
    <timestep time="18.000">
        <vehicle id="f.0" x="219.570000" y="345.200000" angle="90.000000" type="car" speed="13.890000" pos="219.570000" lane="e_src_0" slope="0.000000" acceleration="0.000000"/>
        <vehicle id="f.1" x="177.900000" y="345.200000" angle="90.000000" type="car" speed="13.890000" pos="177.900000" lane="e_src_0" slope="0.000000" acceleration="0.000000"/>
        <vehicle id="f.2" x="136.230000" y="345.200000" angle="90.000000" type="car" speed="13.890000" pos="136.230000" lane="e_src_0" slope="0.000000" acceleration="0.000000"/>
        <vehicle id="f.3" x="94.560000" y="345.200000" angle="90.000000" type="car" speed="13.890000" pos="94.560000" lane="e_src_0" slope="0.000000" acceleration="0.000000"/>
        <vehicle id="f.4" x="52.890000" y="345.200000" angle="90.000000" type="car" speed="13.890000" pos="52.890000" lane="e_src_0" slope="0.000000" acceleration="0.890000"/>
        <vehicle id="f.5" x="15.600000" y="345.200000" angle="90.000000" type="car" speed="7.800000" pos="15.600000" lane="e_src_0" slope="0.000000" acceleration="2.600000"/>
        <vehicle id="f.6" x="0.000000" y="345.200000" angle="90.000000" type="car" speed="0.000000" pos="0.000000" lane="e_src_0" slope="0.000000" acceleration="0.000000"/>
    </timestep>
    <timestep time="19.000">
        <vehicle id="f.0" x="233.460000" y="345.200000" angle="90.000000" type="car" speed="13.890000" pos="233.460000" lane="e_src_0" slope="0.000000" acceleration="0.000000"/>
        <vehicle id="f.1" x="191.790000" y="345.200000" angle="90.000000" type="car" speed="13.890000" pos="191.790000" lane="e_src_0" slope="0.000000" acceleration="0.000000"/>
        <vehicle id="f.2" x="150.120000" y="345.200000" angle="90.000000" type="car" speed="13.890000" pos="150.120000" lane="e_src_0" slope="0.000000" acceleration="0.000000"/>
        <vehicle id="f.3" x="108.450000" y="345.200000" angle="90.000000" type="car" speed="13.890000" pos="108.450000" lane="e_src_0" slope="0.000000" acceleration="0.000000"/>
        <vehicle id="f.4" x="66.780000" y="345.200000" angle="90.000000" type="car" speed="13.890000" pos="66.780000" lane="e_src_0" slope="0.000000" acceleration="0.000000"/>
        <vehicle id="f.5" x="26.000000" y="345.200000" angle="90.000000" type="car" speed="10.400000" pos="26.000000" lane="e_src_0" slope="0.000000" acceleration="2.600000"/>
        <vehicle id="f.6" x="2.600000" y="345.200000" angle="90.000000" type="car" speed="2.600000" pos="2.600000" lane="e_src_0" slope="0.000000" acceleration="2.600000"/>
    </timestep>
    <timestep time="20.000">
        <vehicle id="f.0" x="247.350000" y="345.200000" angle="90.000000" type="car" speed="13.890000" pos="247.350000" lane="e_src_0" slope="0.000000" acceleration="0.000000"/>
        <vehicle id="f.1" x="205.680000" y="345.200000" angle="90.000000" type="car" speed="13.890000" pos="205.680000" lane="e_src_0" slope="0.000000" acceleration="0.000000"/>
        <vehicle id="f.2" x="164.010000" y="345.200000" angle="90.000000" type="car" speed="13.890000" pos="164.010000" lane="e_src_0" slope="0.000000" acceleration="0.000000"/>
        <vehicle id="f.3" x="122.340000" y="345.200000" angle="90.000000" type="car" speed="13.890000" pos="122.340000" lane="e_src_0" slope="0.000000" acceleration="0.000000"/>
        <vehicle id="f.4" x="80.670000" y="345.200000" angle="90.000000" type="car" speed="13.890000" pos="80.670000" lane="e_src_0" slope="0.000000" acceleration="0.000000"/>
        <vehicle id="f.5" x="39.000000" y="345.200000" angle="90.000000" type="car" speed="13.000000" pos="39.000000" lane="e_src_0" slope="0.000000" acceleration="2.600000"/>
        <vehicle id="f.6" x="7.800000" y="345.200000" angle="90.000000" type="car" speed="5.200000" pos="7.800000" lane="e_src_0" slope="0.000000" acceleration="2.600000"/>
    </timestep>
    <timestep time="21.000">
        <vehicle id="f.0" x="261.240000" y="345.200000" angle="90.000000" type="car" speed="13.890000" pos="261.240000" lane="e_src_0" slope="0.000000" acceleration="0.000000"/>
        <vehicle id="f.1" x="219.570000" y="345.200000" angle="90.000000" type="car" speed="13.890000" pos="219.570000" lane="e_src_0" slope="0.000000" acceleration="0.000000"/>
        <vehicle id="f.2" x="177.900000" y="345.200000" angle="90.000000" type="car" speed="13.890000" pos="177.900000" lane="e_src_0" slope="0.000000" acceleration="0.000000"/>
        <vehicle id="f.3" x="136.230000" y="345.200000" angle="90.000000" type="car" speed="13.890000" pos="136.230000" lane="e_src_0" slope="0.000000" acceleration="0.000000"/>
        <vehicle id="f.4" x="94.560000" y="345.200000" angle="90.000000" type="car" speed="13.890000" pos="94.560000" lane="e_src_0" slope="0.000000" acceleration="0.000000"/>
        <vehicle id="f.5" x="52.890000" y="345.200000" angle="90.000000" type="car" speed="13.890000" pos="52.890000" lane="e_src_0" slope="0.000000" acceleration="0.890000"/>
        <vehicle id="f.6" x="15.600000" y="345.200000" angle="90.000000" type="car" speed="7.800000" pos="15.600000" lane="e_src_0" slope="0.000000" acceleration="2.600000"/>
        <vehicle id="f.7" x="0.000000" y="345.200000" angle="90.000000" type="car" speed="0.000000" pos="0.000000" lane="e_src_0" slope="0.000000" acceleration="0.000000"/>
    </timestep>
    <timestep time="22.000">
        <vehicle id="f.0" x="275.130000" y="345.200000" angle="90.000000" type="car" speed="13.890000" pos="275.130000" lane="e_src_0" slope="0.000000" acceleration="0.000000"/>
        <vehicle id="f.1" x="233.460000" y="345.200000" angle="90.000000" type="car" speed="13.890000" pos="233.460000" lane="e_src_0" slope="0.000000" acceleration="0.000000"/>
        <vehicle id="f.2" x="191.790000" y="345.200000" angle="90.000000" type="car" speed="13.890000" pos="191.790000" lane="e_src_0" slope="0.000000" acceleration="0.000000"/>
        <vehicle id="f.3" x="150.120000" y="345.200000" angle="90.000000" type="car" speed="13.890000" pos="150.120000" lane="e_src_0" slope="0.000000" acceleration="0.000000"/>
        <vehicle id="f.4" x="108.450000" y="345.200000" angle="90.000000" type="car" speed="13.890000" pos="108.450000" lane="e_src_0" slope="0.000000" acceleration="0.000000"/>
        <vehicle id="f.5" x="66.780000" y="345.200000" angle="90.000000" type="car" speed="13.890000" pos="66.780000" lane="e_src_0" slope="0.000000" acceleration="0.000000"/>
        <vehicle id="f.6" x="26.000000" y="345.200000" angle="90.000000" type="car" speed="10.400000" pos="26.000000" lane="e_src_0" slope="0.000000" acceleration="2.600000"/>
        <vehicle id="f.7" x="2.600000" y="345.200000" angle="90.000000" type="car" speed="2.600000" pos="2.600000" lane="e_src_0" slope="0.000000" acceleration="2.600000"/>
    </timestep>
    <timestep time="23.000">
        <vehicle id="f.0" x="289.020000" y="345.200000" angle="90.000000" type="car" speed="13.890000" pos="289.020000" lane="e_src_0" slope="0.000000" acceleration="0.000000"/>
        <vehicle id="f.1" x="247.350000" y="345.200000" angle="90.000000" type="car" speed="13.890000" pos="247.350000" lane="e_src_0" slope="0.000000" acceleration="0.000000"/>
        <vehicle id="f.2" x="205.680000" y="345.200000" angle="90.000000" type="car" speed="13.890000" pos="205.680000" lane="e_src_0" slope="0.000000" acceleration="0.000000"/>
        <vehicle id="f.3" x="164.010000" y="345.200000" angle="90.000000" type="car" speed="13.890000" pos="164.010000" lane="e_src_0" slope="0.000000" acceleration="0.000000"/>
        <vehicle id="f.4" x="122.340000" y="345.200000" angle="90.000000" type="car" speed="13.890000" pos="122.340000" lane="e_src_0" slope="0.000000" acceleration="0.000000"/>
        <vehicle id="f.5" x="80.670000" y="345.200000" angle="90.000000" type="car" speed="13.890000" pos="80.670000" lane="e_src_0" slope="0.000000" acceleration="0.000000"/>
        <vehicle id="f.6" x="39.000000" y="345.200000" angle="90.000000" type="car" speed="13.000000" pos="39.000000" lane="e_src_0" slope="0.000000" acceleration="2.600000"/>
        <vehicle id="f.7" x="7.800000" y="345.200000" angle="90.000000" type="car" speed="5.200000" pos="7.800000" lane="e_src_0" slope="0.000000" acceleration="2.600000"/>
    </timestep>
    <timestep time="24.000">
        <vehicle id="f.0" x="302.910000" y="345.200000" angle="90.000000" type="car" speed="13.890000" pos="302.910000" lane="e_src_0" slope="0.000000" acceleration="0.000000"/>
        <vehicle id="f.1" x="261.240000" y="345.200000" angle="90.000000" type="car" speed="13.890000" pos="261.240000" lane="e_src_0" slope="0.000000" acceleration="0.000000"/>
        <vehicle id="f.2" x="219.570000" y="345.200000" angle="90.000000" type="car" speed="13.890000" pos="219.570000" lane="e_src_0" slope="0.000000" acceleration="0.000000"/>
        <vehicle id="f.3" x="177.900000" y="345.200000" angle="90.000000" type="car" speed="13.890000" pos="177.900000" lane="e_src_0" slope="0.000000" acceleration="0.000000"/>
        <vehicle id="f.4" x="136.230000" y="345.200000" angle="90.000000" type="car" speed="13.890000" pos="136.230000" lane="e_src_0" slope="0.000000" acceleration="0.000000"/>
        <vehicle id="f.5" x="94.560000" y="345.200000" angle="90.000000" type="car" speed="13.890000" pos="94.560000" lane="e_src_0" slope="0.000000" acceleration="0.000000"/>
        <vehicle id="f.6" x="52.890000" y="345.200000" angle="90.000000" type="car" speed="13.890000" pos="52.890000" lane="e_src_0" slope="0.000000" acceleration="0.890000"/>
        <vehicle id="f.7" x="15.600000" y="345.200000" angle="90.000000" type="car" speed="7.800000" pos="15.600000" lane="e_src_0" slope="0.000000" acceleration="2.600000"/>
        <vehicle id="f.8" x="0.000000" y="345.200000" angle="90.000000" type="car" speed="0.000000" pos="0.000000" lane="e_src_0" slope="0.000000" acceleration="0.000000"/>
    </timestep>
    <timestep time="25.000">
        <vehicle id="f.0" x="316.800000" y="345.200000" angle="90.000000" type="car" speed="13.890000" pos="316.800000" lane="e_src_0" slope="0.000000" acceleration="0.000000"/>
        <vehicle id="f.1" x="275.130000" y="345.200000" angle="90.000000" type="car" speed="13.890000" pos="275.130000" lane="e_src_0" slope="0.000000" acceleration="0.000000"/>
        <vehicle id="f.2" x="233.460000" y="345.200000" angle="90.000000" type="car" speed="13.890000" pos="233.460000" lane="e_src_0" slope="0.000000" acceleration="0.000000"/>
        <vehicle id="f.3" x="191.790000" y="345.200000" angle="90.000000" type="car" speed="13.890000" pos="191.790000" lane="e_src_0" slope="0.000000" acceleration="0.000000"/>
        <vehicle id="f.4" x="150.120000" y="345.200000" angle="90.000000" type="car" speed="13.890000" pos="150.120000" lane="e_src_0" slope="0.000000" acceleration="0.000000"/>
        <vehicle id="f.5" x="108.450000" y="345.200000" angle="90.000000" type="car" speed="13.890000" pos="108.450000" lane="e_src_0" slope="0.000000" acceleration="0.000000"/>
        <vehicle id="f.6" x="66.780000" y="345.200000" angle="90.000000" type="car" speed="13.890000" pos="66.780000" lane="e_src_0" slope="0.000000" acceleration="0.000000"/>
        <vehicle id="f.7" x="26.000000" y="345.200000" angle="90.000000" type="car" speed="10.400000" pos="26.000000" lane="e_src_0" slope="0.000000" acceleration="2.600000"/>
        <vehicle id="f.8" x="2.600000" y="345.200000" angle="90.000000" type="car" speed="2.600000" pos="2.600000" lane="e_src_0" slope="0.000000" acceleration="2.600000"/>
    </timestep>
    <timestep time="26.000">
        <vehicle id="f.0" x="330.690000" y="345.200000" angle="90.000000" type="car" speed="13.890000" pos="330.690000" lane="e_src_0" slope="0.000000" acceleration="0.000000"/>
        <vehicle id="f.1" x="289.020000" y="345.200000" angle="90.000000" type="car" speed="13.890000" pos="289.020000" lane="e_src_0" slope="0.000000" acceleration="0.000000"/>
        <vehicle id="f.2" x="247.350000" y="345.200000" angle="90.000000" type="car" speed="13.890000" pos="247.350000" lane="e_src_0" slope="0.000000" acceleration="0.000000"/>
        <vehicle id="f.3" x="205.680000" y="345.200000" angle="90.000000" type="car" speed="13.890000" pos="205.680000" lane="e_src_0" slope="0.000000" acceleration="0.000000"/>
        <vehicle id="f.4" x="164.010000" y="345.200000" angle="90.000000" type="car" speed="13.890000" pos="164.010000" lane="e_src_0" slope="0.000000" acceleration="0.000000"/>
        <vehicle id="f.5" x="122.340000" y="345.200000" angle="90.000000" type="car" speed="13.890000" pos="122.340000" lane="e_src_0" slope="0.000000" acceleration="0.000000"/>
        <vehicle id="f.6" x="80.670000" y="345.200000" angle="90.000000" type="car" speed="13.890000" pos="80.670000" lane="e_src_0" slope="0.000000" acceleration="0.000000"/>
        <vehicle id="f.7" x="39.000000" y="345.200000" angle="90.000000" type="car" speed="13.000000" pos="39.000000" lane="e_src_0" slope="0.000000" acceleration="2.600000"/>
        <vehicle id="f.8" x="7.800000" y="345.200000" angle="90.000000" type="car" speed="5.200000" pos="7.800000" lane="e_src_0" slope="0.000000" acceleration="2.600000"/>
    </timestep>
    <timestep time="27.000">
        <vehicle id="f.0" x="344.580000" y="345.200000" angle="90.000000" type="car" speed="13.890000" pos="344.580000" lane="e_src_0" slope="0.000000" acceleration="0.000000"/>
        <vehicle id="f.1" x="302.910000" y="345.200000" angle="90.000000" type="car" speed="13.890000" pos="302.910000" lane="e_src_0" slope="0.000000" acceleration="0.000000"/>
        <vehicle id="f.2" x="261.240000" y="345.200000" angle="90.000000" type="car" speed="13.890000" pos="261.240000" lane="e_src_0" slope="0.000000" acceleration="0.000000"/>
        <vehicle id="f.3" x="219.570000" y="345.200000" angle="90.000000" type="car" speed="13.890000" pos="219.570000" lane="e_src_0" slope="0.000000" acceleration="0.000000"/>
        <vehicle id="f.4" x="177.900000" y="345.200000" angle="90.000000" type="car" speed="13.890000" pos="177.900000" lane="e_src_0" slope="0.000000" acceleration="0.000000"/>
        <vehicle id="f.5" x="136.230000" y="345.200000" angle="90.000000" type="car" speed="13.890000" pos="136.230000" lane="e_src_0" slope="0.000000" acceleration="0.000000"/>
        <vehicle id="f.6" x="94.560000" y="345.200000" angle="90.000000" type="car" speed="13.890000" pos="94.560000" lane="e_src_0" slope="0.000000" acceleration="0.000000"/>
        <vehicle id="f.7" x="52.890000" y="345.200000" angle="90.000000" type="car" speed="13.890000" pos="52.890000" lane="e_src_0" slope="0.000000" acceleration="0.890000"/>
        <vehicle id="f.8" x="15.600000" y="345.200000" angle="90.000000" type="car" speed="7.800000" pos="15.600000" lane="e_src_0" slope="0.000000" acceleration="2.600000"/>
        <vehicle id="f.9" x="0.000000" y="345.200000" angle="90.000000" type="car" speed="0.000000" pos="0.000000" lane="e_src_0" slope="0.000000" acceleration="0.000000"/>
    </timestep>
    <timestep time="28.000">
        <vehicle id="f.0" x="358.470000" y="345.200000" angle="90.000000" type="car" speed="13.890000" pos="358.470000" lane="e_src_0" slope="0.000000" acceleration="0.000000"/>
        <vehicle id="f.1" x="316.800000" y="345.200000" angle="90.000000" type="car" speed="13.890000" pos="316.800000" lane="e_src_0" slope="0.000000" acceleration="0.000000"/>
        <vehicle id="f.2" x="275.130000" y="345.200000" angle="90.000000" type="car" speed="13.890000" pos="275.130000" lane="e_src_0" slope="0.000000" acceleration="0.000000"/>
        <vehicle id="f.3" x="233.460000" y="345.200000" angle="90.000000" type="car" speed="13.890000" pos="233.460000" lane="e_src_0" slope="0.000000" acceleration="0.000000"/>
        <vehicle id="f.4" x="191.790000" y="345.200000" angle="90.000000" type="car" speed="13.890000" pos="191.790000" lane="e_src_0" slope="0.000000" acceleration="0.000000"/>
        <vehicle id="f.5" x="150.120000" y="345.200000" angle="90.000000" type="car" speed="13.890000" pos="150.120000" lane="e_src_0" slope="0.000000" acceleration="0.000000"/>
        <vehicle id="f.6" x="108.450000" y="345.200000" angle="90.000000" type="car" speed="13.890000" pos="108.450000" lane="e_src_0" slope="0.000000" acceleration="0.000000"/>
        <vehicle id="f.7" x="66.780000" y="345.200000" angle="90.000000" type="car" speed="13.890000" pos="66.780000" lane="e_src_0" slope="0.000000" acceleration="0.000000"/>