<?xml version="1.0" encoding="UTF-8"?>
<fcd-export>
    <timestep time="0">
        <vehicle id="n_left" x="118.4" y="240" angle="180" type="car" speed="13.89" pos="0" posLat="0" lane="NtoC_0"/>
        <vehicle id="e_left" x="240" y="121.6" angle="270" type="car" speed="13.89" pos="0" posLat="0" lane="EtoC_0"/>
    </timestep>
    <timestep time="1">
        <vehicle id="n_left" x="118.4" y="226.11" angle="180" type="car" speed="13.89" pos="13.89" posLat="0" lane="NtoC_0"/>
        <vehicle id="e_left" x="226.11" y="121.6" angle="270" type="car" speed="13.89" pos="13.89" posLat="0" lane="EtoC_0"/>
    </timestep>
    <timestep time="2">
        <vehicle id="n_left" x="118.4" y="212.22" angle="180" type="car" speed="13.89" pos="27.78" posLat="0" lane="NtoC_0"/>
        <vehicle id="e_left" x="212.22" y="121.6" angle="270" type="car" speed="13.89" pos="27.78" posLat="0" lane="EtoC_0"/>
    </timestep>
    <timestep time="3">
        <vehicle id="n_left" x="118.4" y="198.32999999999998" angle="180" type="car" speed="13.89" pos="41.67" posLat="0" lane="NtoC_0"/>
        <vehicle id="e_left" x="198.32999999999998" y="121.6" angle="270" type="car" speed="13.89" pos="41.67" posLat="0" lane="EtoC_0"/>
    </timestep>
    <timestep time="4">
        <vehicle id="n_left" x="118.4" y="184.44" angle="180" type="car" speed="13.89" pos="55.56" posLat="0" lane="NtoC_0"/>
        <vehicle id="e_left" x="184.44" y="121.6" angle="270" type="car" speed="13.89" pos="55.56" posLat="0" lane="EtoC_0"/>
    </timestep>
    <timestep time="5">
        <vehicle id="n_left" x="118.4" y="170.55" angle="180" type="car" speed="13.89" pos="69.45" posLat="0" lane="NtoC_0"/>
        <vehicle id="e_left" x="170.55" y="121.6" angle="270" type="car" speed="13.89" pos="69.45" posLat="0" lane="EtoC_0"/>
    </timestep>
    <timestep time="6">
        <vehicle id="n_left" x="118.4" y="156.66" angle="180" type="car" speed="13.89" pos="83.34" posLat="0" lane="NtoC_0"/>
        <vehicle id="e_left" x="156.66" y="121.6" angle="270" type="car" speed="13.89" pos="83.34" posLat="0" lane="EtoC_0"/>
    </timestep>
    <timestep time="7">
        <vehicle id="n_left" x="118.4" y="151.76999999999998" angle="180" type="car" speed="4.890000000000001" pos="88.23" posLat="0" lane="NtoC_0"/>
        <vehicle id="e_left" x="151.76999999999998" y="121.6" angle="270" type="car" speed="4.890000000000001" pos="88.23" posLat="0" lane="EtoC_0"/>
    </timestep>
    <timestep time="8">
        <vehicle id="n_left" x="118.4" y="144.28" angle="180" type="car" speed="7.49" pos="95.72" posLat="0" lane="NtoC_0"/>
        <vehicle id="e_left" x="144.28" y="121.6" angle="270" type="car" speed="7.49" pos="95.72" posLat="0" lane="EtoC_0"/>
    </timestep>
    <timestep time="9">
        <vehicle id="n_left" x="118.4" y="134.42033333333333" angle="180" type="car" speed="9.859666666666666" pos="105.57966666666667" posLat="0" lane="NtoC_0"/>
        <vehicle id="e_left" x="134.19" y="121.6" angle="270" type="car" speed="10.09" pos="105.81" posLat="0" lane="EtoC_0"/>
    </timestep>
    <timestep time="10">
        <vehicle id="n_left" x="118.4" y="133.56066666666666" angle="180" type="car" speed="0.8596666666666657" pos="106.43933333333334" posLat="0" lane="NtoC_0"/>
        <vehicle id="e_left" x="133.1" y="121.6" angle="270" type="car" speed="1.0899999999999999" pos="106.9" posLat="0" lane="EtoC_0"/>
    </timestep>
    <timestep time="11">
        <vehicle id="n_left" x="118.4" y="130.101" angle="180" type="car" speed="3.459666666666666" pos="109.899" posLat="0" lane="NtoC_0"/>
        <vehicle id="e_left" x="129.41" y="121.6" angle="270" type="car" speed="3.69" pos="110.59" posLat="0" lane="EtoC_0"/>
    </timestep>
    <timestep time="12">
        <vehicle id="n_left" x="118.4" y="128.20100000000002" angle="180" type="car" speed="1.8999999999999964" pos="111.79899999999999" posLat="0" lane="NtoC_0"/>
        <vehicle id="e_left" x="124.10195305958737" y="121.15742186565534" angle="261.86989764584405" type="car" speed="5.3394999999999975" pos="3.1295000000000073" posLat="0" lane=":C_5_0"/>
    </timestep>
    <timestep time="13">
        <vehicle id="n_left" x="118.4" y="128.20100000000002" angle="180" type="car" speed="0" pos="111.79899999999999" posLat="0" lane="NtoC_0"/>
        <vehicle id="e_left" x="118.84253653157725" y="115.89775572104075" angle="188.13010235415592" type="car" speed="7.939499999999997" pos="6.999000000000004" posLat="0" lane=":C_13_0"/>
    </timestep>
    <timestep time="14">
        <vehicle id="n_left" x="118.4" y="128.20100000000002" angle="180" type="car" speed="0" pos="111.79899999999999" posLat="0" lane="NtoC_0"/>
        <vehicle id="e_left" x="118.4" y="107.931" angle="180" type="car" speed="8" pos="4.869000000000003" posLat="0" lane="CtoS_0"/>
    </timestep>
    <timestep time="15">
        <vehicle id="n_left" x="118.4" y="128.20100000000002" angle="180" type="car" speed="4.7748263676261615E-15" pos="111.79899999999999" posLat="0" lane="NtoC_0"/>
        <vehicle id="e_left" x="118.4" y="97.33099999999999" angle="180" type="car" speed="10.6" pos="15.469000000000003" posLat="0" lane="CtoS_0"/>
    </timestep>
    <timestep time="16">
        <vehicle id="n_left" x="118.4" y="128.20100000000002" angle="180" type="car" speed="4.7748263676261615E-15" pos="111.79899999999999" posLat="0" lane="NtoC_0"/>
        <vehicle id="e_left" x="118.4" y="84.131" angle="180" type="car" speed="13.2" pos="28.669000000000004" posLat="0" lane="CtoS_0"/>
    </timestep>
    <timestep time="17">
        <vehicle id="n_left" x="118.4" y="128.20100000000002" angle="180" type="car" speed="4.7748263676261615E-15" pos="111.79899999999999" posLat="0" lane="NtoC_0"/>
        <vehicle id="e_left" x="118.4" y="70.24099999999999" angle="180" type="car" speed="13.89" pos="42.559000000000005" posLat="0" lane="CtoS_0"/>
    </timestep>
    <timestep time="18">
        <vehicle id="n_left" x="118.4" y="128.20100000000002" angle="180" type="car" speed="4.7748263676261615E-15" pos="111.79899999999999" posLat="0" lane="NtoC_0"/>
        <vehicle id="e_left" x="118.4" y="56.350999999999985" angle="180" type="car" speed="13.89" pos="56.449000000000005" posLat="0" lane="CtoS_0"/>
    </timestep>
    <timestep time="19">
        <vehicle id="n_left" x="118.4" y="128.20100000000002" angle="180" type="car" speed="4.7748263676261615E-15" pos="111.79899999999999" posLat="0" lane="NtoC_0"/>
        <vehicle id="e_left" x="118.4" y="42.461" angle="180" type="car" speed="13.89" pos="70.339" posLat="0" lane="CtoS_0"/>
    </timestep>
    <timestep time="20">
        <vehicle id="n_left" x="118.4" y="128.20100000000002" angle="180" type="car" speed="4.7748263676261615E-15" pos="111.79899999999999" posLat="0" lane="NtoC_0"/>
        <vehicle id="e_left" x="118.4" y="28.570999999999998" angle="180" type="car" speed="13.89" pos="84.229" posLat="0" lane="CtoS_0"/>
    </timestep>
    <timestep time="21">
        <vehicle id="n_left" x="118.4" y="128.20100000000002" angle="180" type="car" speed="4.7748263676261615E-15" pos="111.79899999999999" posLat="0" lane="NtoC_0"/>
        <vehicle id="e_left" x="118.4" y="14.680999999999997" angle="180" type="car" speed="13.89" pos="98.119" posLat="0" lane="CtoS_0"/>
    </timestep>
    <timestep time="22">
        <vehicle id="n_left" x="118.4" y="128.20100000000002" angle="180" type="car" speed="4.7748263676261615E-15" pos="111.79899999999999" posLat="0" lane="NtoC_0"/>
        <vehicle id="e_left" x="118.4" y="0.7909999999999968" angle="180" type="car" speed="13.89" pos="112.009" posLat="0" lane="CtoS_0"/>
    </timestep>
    <timestep time="23">
        <vehicle id="n_left" x="118.4" y="128.20100000000002" angle="180" type="car" speed="4.7748263676261615E-15" pos="111.79899999999999" posLat="0" lane="NtoC_0"/>
    </timestep>
    <timestep time="24">
        <vehicle id="n_left" x="118.4" y="128.20100000000002" angle="180" type="car" speed="4.7748263676261615E-15" pos="111.79899999999999" posLat="0" lane="NtoC_0"/>
    </timestep>
    <timestep time="25">
        <vehicle id="n_left" x="118.4" y="128.20100000000002" angle="180" type="car" speed="4.7748263676261615E-15" pos="111.79899999999999" posLat="0" lane="NtoC_0"/>
    </timestep>
    <timestep time="26">
        <vehicle id="n_left" x="118.4" y="128.20100000000002" angle="180" type="car" speed="4.7748263676261615E-15" pos="111.79899999999999" posLat="0" lane="NtoC_0"/>
    </timestep>
    <timestep time="27">
        <vehicle id="n_left" x="118.4" y="128.20100000000002" angle="180" type="car" speed="4.7748263676261615E-15" pos="111.79899999999999" posLat="0" lane="NtoC_0"/>
    </timestep>
    <timestep time="28">
        <vehicle id="n_left" x="118.4" y="128.20100000000002" angle="180" type="car" speed="4.7748263676261615E-15" pos="111.79899999999999" posLat="0" lane="NtoC_0"/>
    </timestep>
    <timestep time="29">
        <vehicle id="n_left" x="118.4" y="128.20100000000002" angle="180" type="car" speed="4.7748263676261615E-15" pos="111.79899999999999" posLat="0" lane="NtoC_0"/>
    </timestep>
</fcd-export>
