<?xml version="1.0" encoding="UTF-8"?>

<!-- generated on 2026-07-19 08:29:53 by Eclipse SUMO sumo Version 1.20.0
<configuration xmlns:xsi="http://www.w3.org/2001/XMLSchema-instance" xsi:noNamespaceSchemaLocation="http://sumo.dlr.de/xsd/sumoConfiguration.xsd">

    <input>
        <net-file value="/home/user/SumoSharp/scenarios/75-tl-junction-rbl/net.net.xml"/>
        <route-files value="/home/user/SumoSharp/scenarios/75-tl-junction-rbl/rou.rou.xml"/>
    </input>

    <output>
        <precision value="6"/>
        <fcd-output value="/home/user/SumoSharp/scenarios/75-tl-junction-rbl/golden.fcd.xml"/>
        <fcd-output.acceleration value="true"/>
        <save-state.times value="1"/>
        <save-state.files value="/home/user/SumoSharp/scenarios/75-tl-junction-rbl/golden.state.xml"/>
    </output>

    <time>
        <begin value="0"/>
        <end value="30"/>
        <step-length value="1"/>
    </time>

    <processing>
        <step-method.ballistic value="false"/>
        <collision.action value="none"/>
        <time-to-teleport value="-1"/>
        <default.action-step-length value="1"/>
        <default.speeddev value="0"/>
    </processing>

    <report>
        <no-step-log value="true"/>
    </report>

    <random_number>
        <seed value="42"/>
    </random_number>

</configuration>
-->

<fcd-export xmlns:xsi="http://www.w3.org/2001/XMLSchema-instance" xsi:noNamespaceSchemaLocation="http://sumo.dlr.de/xsd/fcd_file.xsd">
    <timestep time="0.000">
        <vehicle id="e_left" x="234.900000" y="121.600000" angle="270.000000" type="car" speed="13.890000" pos="5.100000" lane="EtoC_0" slope="0.000000" acceleration="0.000000"/>
        <vehicle id="n_left" x="118.400000" y="234.900000" angle="180.000000" type="car" speed="13.890000" pos="5.100000" lane="NtoC_0" slope="0.000000" acceleration="0.000000"/>
    </timestep>
    <timestep time="1.000">
        <vehicle id="e_left" x="221.010000" y="121.600000" angle="270.000000" type="car" speed="13.890000" pos="18.990000" lane="EtoC_0" slope="0.000000" acceleration="0.000000"/>
        <vehicle id="n_left" x="118.400000" y="221.010000" angle="180.000000" type="car" speed="13.890000" pos="18.990000" lane="NtoC_0" slope="0.000000" acceleration="0.000000"/>
    </timestep>
    <timestep time="2.000">
        <vehicle id="e_left" x="207.120000" y="121.600000" angle="270.000000" type="car" speed="13.890000" pos="32.880000" lane="EtoC_0" slope="0.000000" acceleration="0.000000"/>
        <vehicle id="n_left" x="118.400000" y="207.120000" angle="180.000000" type="car" speed="13.890000" pos="32.880000" lane="NtoC_0" slope="0.000000" acceleration="0.000000"/>
    </timestep>
    <timestep time="3.000">
        <vehicle id="e_left" x="193.230000" y="121.600000" angle="270.000000" type="car" speed="13.890000" pos="46.770000" lane="EtoC_0" slope="0.000000" acceleration="0.000000"/>
        <vehicle id="n_left" x="118.400000" y="193.230000" angle="180.000000" type="car" speed="13.890000" pos="46.770000" lane="NtoC_0" slope="0.000000" acceleration="0.000000"/>
    </timestep>
    <timestep time="4.000">
        <vehicle id="e_left" x="179.340000" y="121.600000" angle="270.000000" type="car" speed="13.890000" pos="60.660000" lane="EtoC_0" slope="0.000000" acceleration="0.000000"/>
        <vehicle id="n_left" x="118.400000" y="179.340000" angle="180.000000" type="car" speed="13.890000" pos="60.660000" lane="NtoC_0" slope="0.000000" acceleration="0.000000"/>
    </timestep>
    <timestep time="5.000">
        <vehicle id="e_left" x="165.450000" y="121.600000" angle="270.000000" type="car" speed="13.890000" pos="74.550000" lane="EtoC_0" slope="0.000000" acceleration="0.000000"/>
        <vehicle id="n_left" x="118.400000" y="165.450000" angle="180.000000" type="car" speed="13.890000" pos="74.550000" lane="NtoC_0" slope="0.000000" acceleration="0.000000"/>
    </timestep>
    <timestep time="6.000">
        <vehicle id="e_left" x="151.560000" y="121.600000" angle="270.000000" type="car" speed="13.890000" pos="88.440000" lane="EtoC_0" slope="0.000000" acceleration="0.000000"/>
        <vehicle id="n_left" x="118.400000" y="151.560000" angle="180.000000" type="car" speed="13.890000" pos="88.440000" lane="NtoC_0" slope="0.000000" acceleration="0.000000"/>
    </timestep>
    <timestep time="7.000">
        <vehicle id="e_left" x="137.727750" y="121.600000" angle="270.000000" type="car" speed="13.832250" pos="102.272250" lane="EtoC_0" slope="0.000000" acceleration="-0.057750"/>
        <vehicle id="n_left" x="118.400000" y="139.273667" angle="180.000000" type="car" speed="12.286333" pos="100.726333" lane="NtoC_0" slope="0.000000" acceleration="-1.603667"/>
    </timestep>
    <timestep time="8.000">
        <vehicle id="e_left" x="128.395500" y="121.600000" angle="270.000000" type="car" speed="9.332250" pos="111.604500" lane="EtoC_0" slope="0.000000" acceleration="-4.500000"/>
        <vehicle id="n_left" x="118.400000" y="131.487333" angle="180.000000" type="car" speed="7.786333" pos="108.512667" lane="NtoC_0" slope="0.000000" acceleration="-4.500000"/>
    </timestep>
    <timestep time="9.000">
        <vehicle id="e_left" x="123.605095" y="121.086442" angle="264.086481" type="car" speed="4.832250" pos="3.636750" lane=":C_5_0" slope="0.000000" acceleration="-4.500000"/>
        <vehicle id="n_left" x="118.400000" y="128.201000" angle="180.000000" type="car" speed="3.286333" pos="111.799000" lane="NtoC_0" slope="0.000000" acceleration="-4.500000"/>
    </timestep>
    <timestep time="10.000">
        <vehicle id="e_left" x="118.842712" y="115.898983" angle="213.244980" type="car" speed="7.432250" pos="6.999000" lane=":C_13_0" slope="0.000000" acceleration="2.600000"/>
        <vehicle id="n_left" x="118.400000" y="128.201000" angle="180.000000" type="car" speed="0.000000" pos="111.799000" lane="NtoC_0" slope="0.000000" acceleration="-3.286333"/>
    </timestep>
    <timestep time="11.000">
        <vehicle id="e_left" x="118.400000" y="107.931000" angle="180.212313" type="car" speed="8.000000" pos="4.869000" lane="CtoS_0" slope="0.000000" acceleration="0.567750"/>
        <vehicle id="n_left" x="118.400000" y="128.201000" angle="180.000000" type="car" speed="0.000000" pos="111.799000" lane="NtoC_0" slope="0.000000" acceleration="0.000000"/>
    </timestep>
    <timestep time="12.000">
        <vehicle id="e_left" x="118.400000" y="97.331000" angle="180.000000" type="car" speed="10.600000" pos="15.469000" lane="CtoS_0" slope="0.000000" acceleration="2.600000"/>
        <vehicle id="n_left" x="118.400000" y="128.201000" angle="180.000000" type="car" speed="0.000000" pos="111.799000" lane="NtoC_0" slope="0.000000" acceleration="0.000000"/>
    </timestep>
    <timestep time="13.000">
        <vehicle id="e_left" x="118.400000" y="84.131000" angle="180.000000" type="car" speed="13.200000" pos="28.669000" lane="CtoS_0" slope="0.000000" acceleration="2.600000"/>
        <vehicle id="n_left" x="118.400000" y="128.201000" angle="180.000000" type="car" speed="0.000000" pos="111.799000" lane="NtoC_0" slope="0.000000" acceleration="0.000000"/>
    </timestep>
    <timestep time="14.000">
        <vehicle id="e_left" x="118.400000" y="70.241000" angle="180.000000" type="car" speed="13.890000" pos="42.559000" lane="CtoS_0" slope="0.000000" acceleration="0.690000"/>
        <vehicle id="n_left" x="118.400000" y="128.201000" angle="180.000000" type="car" speed="0.000000" pos="111.799000" lane="NtoC_0" slope="0.000000" acceleration="0.000000"/>
    </timestep>
    <timestep time="15.000">
        <vehicle id="e_left" x="118.400000" y="56.351000" angle="180.000000" type="car" speed="13.890000" pos="56.449000" lane="CtoS_0" slope="0.000000" acceleration="0.000000"/>
        <vehicle id="n_left" x="118.400000" y="128.201000" angle="180.000000" type="car" speed="0.000000" pos="111.799000" lane="NtoC_0" slope="0.000000" acceleration="0.000000"/>
    </timestep>
    <timestep time="16.000">
        <vehicle id="e_left" x="118.400000" y="42.461000" angle="180.000000" type="car" speed="13.890000" pos="70.339000" lane="CtoS_0" slope="0.000000" acceleration="0.000000"/>
        <vehicle id="n_left" x="118.400000" y="128.201000" angle="180.000000" type="car" speed="0.000000" pos="111.799000" lane="NtoC_0" slope="0.000000" acceleration="0.000000"/>
    </timestep>
    <timestep time="17.000">
        <vehicle id="e_left" x="118.400000" y="28.571000" angle="180.000000" type="car" speed="13.890000" pos="84.229000" lane="CtoS_0" slope="0.000000" acceleration="0.000000"/>
        <vehicle id="n_left" x="118.400000" y="128.201000" angle="180.000000" type="car" speed="0.000000" pos="111.799000" lane="NtoC_0" slope="0.000000" acceleration="0.000000"/>
    </timestep>
    <timestep time="18.000">
        <vehicle id="e_left" x="118.400000" y="14.681000" angle="180.000000" type="car" speed="13.890000" pos="98.119000" lane="CtoS_0" slope="0.000000" acceleration="0.000000"/>
        <vehicle id="n_left" x="118.400000" y="128.201000" angle="180.000000" type="car" speed="0.000000" pos="111.799000" lane="NtoC_0" slope="0.000000" acceleration="0.000000"/>
    </timestep>
    <timestep time="19.000">
        <vehicle id="e_left" x="118.400000" y="0.791000" angle="180.000000" type="car" speed="13.890000" pos="112.009000" lane="CtoS_0" slope="0.000000" acceleration="0.000000"/>
        <vehicle id="n_left" x="118.400000" y="128.201000" angle="180.000000" type="car" speed="0.000000" pos="111.799000" lane="NtoC_0" slope="0.000000" acceleration="0.000000"/>
    </timestep>
    <timestep time="20.000">
        <vehicle id="n_left" x="118.400000" y="128.201000" angle="180.000000" type="car" speed="0.000000" pos="111.799000" lane="NtoC_0" slope="0.000000" acceleration="0.000000"/>
    </timestep>
    <timestep time="21.000">
        <vehicle id="n_left" x="118.400000" y="128.201000" angle="180.000000" type="car" speed="0.000000" pos="111.799000" lane="NtoC_0" slope="0.000000" acceleration="0.000000"/>
    </timestep>
    <timestep time="22.000">
        <vehicle id="n_left" x="118.400000" y="128.201000" angle="180.000000" type="car" speed="0.000000" pos="111.799000" lane="NtoC_0" slope="0.000000" acceleration="0.000000"/>
    </timestep>
    <timestep time="23.000">
        <vehicle id="n_left" x="118.400000" y="128.201000" angle="180.000000" type="car" speed="0.000000" pos="111.799000" lane="NtoC_0" slope="0.000000" acceleration="0.000000"/>
    </timestep>
    <timestep time="24.000">
        <vehicle id="n_left" x="118.400000" y="128.201000" angle="180.000000" type="car" speed="0.000000" pos="111.799000" lane="NtoC_0" slope="0.000000" acceleration="0.000000"/>
    </timestep>
    <timestep time="25.000">
        <vehicle id="n_left" x="118.400000" y="128.201000" angle="180.000000" type="car" speed="0.000000" pos="111.799000" lane="NtoC_0" slope="0.000000" acceleration="0.000000"/>
    </timestep>
    <timestep time="26.000">
        <vehicle id="n_left" x="118.400000" y="128.201000" angle="180.000000" type="car" speed="0.000000" pos="111.799000" lane="NtoC_0" slope="0.000000" acceleration="0.000000"/>
    </timestep>
    <timestep time="27.000">
        <vehicle id="n_left" x="118.400000" y="128.201000" angle="180.000000" type="car" speed="0.000000" pos="111.799000" lane="NtoC_0" slope="0.000000" acceleration="0.000000"/>
    </timestep>
    <timestep time="28.000">
        <vehicle id="n_left" x="118.400000" y="128.201000" angle="180.000000" type="car" speed="0.000000" pos="111.799000" lane="NtoC_0" slope="0.000000" acceleration="0.000000"/>
    </timestep>
    <timestep time="29.000">
        <vehicle id="n_left" x="118.400000" y="128.201000" angle="180.000000" type="car" speed="0.000000" pos="111.799000" lane="NtoC_0" slope="0.000000" acceleration="0.000000"/>
    </timestep>
</fcd-export>
