<?xml version="1.0" encoding="UTF-8"?>

<!-- generated on 2026-07-18 15:26:30 by Eclipse SUMO sumo Version 1.20.0
<configuration xmlns:xsi="http://www.w3.org/2001/XMLSchema-instance" xsi:noNamespaceSchemaLocation="http://sumo.dlr.de/xsd/sumoConfiguration.xsd">

    <input>
        <net-file value="/home/user/SumoSharp/scenarios/69-parkandstay-lc/net.net.xml"/>
        <route-files value="/home/user/SumoSharp/scenarios/69-parkandstay-lc/rou.rou.xml"/>
        <additional-files value="/home/user/SumoSharp/scenarios/69-parkandstay-lc/extra.add.xml"/>
    </input>

    <output>
        <precision value="6"/>
        <fcd-output value="/home/user/SumoSharp/scenarios/69-parkandstay-lc/golden.fcd.xml"/>
        <fcd-output.acceleration value="true"/>
        <tripinfo-output value="/home/user/SumoSharp/scenarios/69-parkandstay-lc/golden.tripinfo.xml"/>
        <save-state.times value="1"/>
        <save-state.files value="/home/user/SumoSharp/scenarios/69-parkandstay-lc/golden.state.xml"/>
    </output>

    <time>
        <begin value="0"/>
        <end value="30"/>
        <step-length value="1"/>
    </time>

    <processing>
        <step-method.ballistic value="false"/>
        <collision.action value="none"/>
        <time-to-teleport value="-1"/>
        <default.action-step-length value="1"/>
        <default.speeddev value="0"/>
    </processing>

    <report>
        <no-step-log value="true"/>
    </report>

    <random_number>
        <seed value="42"/>
    </random_number>

</configuration>
-->

<fcd-export xmlns:xsi="http://www.w3.org/2001/XMLSchema-instance" xsi:noNamespaceSchemaLocation="http://sumo.dlr.de/xsd/fcd_file.xsd">
    <timestep time="0.000">
        <vehicle id="park0" x="0.000000" y="-1.600000" angle="90.000000" type="car" speed="0.000000" pos="0.000000" lane="e0_1" slope="0.000000" acceleration="0.000000"/>
    </timestep>
    <timestep time="1.000">
        <vehicle id="park0" x="2.600000" y="-1.600000" angle="90.000000" type="car" speed="2.600000" pos="2.600000" lane="e0_1" slope="0.000000" acceleration="2.600000"/>
    </timestep>
    <timestep time="2.000">
        <vehicle id="park0" x="7.800000" y="-4.800000" angle="90.000000" type="car" speed="5.200000" pos="7.800000" lane="e0_0" slope="0.000000" acceleration="2.600000"/>
    </timestep>
    <timestep time="3.000">
        <vehicle id="park0" x="15.600000" y="-4.800000" angle="90.000000" type="car" speed="7.800000" pos="15.600000" lane="e0_0" slope="0.000000" acceleration="2.600000"/>
    </timestep>
    <timestep time="4.000">
        <vehicle id="park0" x="26.000000" y="-4.800000" angle="90.000000" type="car" speed="10.400000" pos="26.000000" lane="e0_0" slope="0.000000" acceleration="2.600000"/>
    </timestep>
    <timestep time="5.000">
        <vehicle id="park0" x="37.666333" y="-4.800000" angle="90.000000" type="car" speed="11.666333" pos="37.666333" lane="e0_0" slope="0.000000" acceleration="1.266333"/>
    </timestep>
    <timestep time="6.000">
        <vehicle id="park0" x="44.832667" y="-4.800000" angle="90.000000" type="car" speed="7.166333" pos="44.832667" lane="e0_0" slope="0.000000" acceleration="-4.500000"/>
    </timestep>
    <timestep time="7.000">
        <vehicle id="park0" x="47.499000" y="-4.800000" angle="90.000000" type="car" speed="2.666333" pos="47.499000" lane="e0_0" slope="0.000000" acceleration="-4.500000"/>
    </timestep>
    <timestep time="8.000">
        <vehicle id="park0" x="47.500000" y="-8.000000" angle="90.000000" type="car" speed="0.000000" pos="47.499000" lane="e0_0" slope="0.000000" acceleration="-2.666333"/>
    </timestep>
    <timestep time="9.000">
        <vehicle id="park0" x="47.500000" y="-8.000000" angle="90.000000" type="car" speed="0.000000" pos="47.499000" lane="e0_0" slope="0.000000" acceleration="-0.000000"/>
    </timestep>
    <timestep time="10.000">
        <vehicle id="park0" x="47.500000" y="-8.000000" angle="90.000000" type="car" speed="0.000000" pos="47.499000" lane="e0_0" slope="0.000000" acceleration="0.000000"/>
    </timestep>
    <timestep time="11.000">
        <vehicle id="park0" x="47.500000" y="-8.000000" angle="90.000000" type="car" speed="0.000000" pos="47.499000" lane="e0_0" slope="0.000000" acceleration="0.000000"/>
    </timestep>
    <timestep time="12.000">
        <vehicle id="park0" x="47.500000" y="-8.000000" angle="90.000000" type="car" speed="0.000000" pos="47.499000" lane="e0_0" slope="0.000000" acceleration="0.000000"/>
    </timestep>
    <timestep time="13.000">
        <vehicle id="park0" x="47.500000" y="-8.000000" angle="90.000000" type="car" speed="0.000000" pos="47.499000" lane="e0_0" slope="0.000000" acceleration="0.000000"/>
    </timestep>
    <timestep time="14.000">
        <vehicle id="park0" x="47.500000" y="-8.000000" angle="90.000000" type="car" speed="0.000000" pos="47.499000" lane="e0_0" slope="0.000000" acceleration="0.000000"/>
    </timestep>
    <timestep time="15.000">
        <vehicle id="park0" x="47.500000" y="-8.000000" angle="90.000000" type="car" speed="0.000000" pos="47.499000" lane="e0_0" slope="0.000000" acceleration="0.000000"/>
    </timestep>
    <timestep time="16.000">
        <vehicle id="park0" x="47.500000" y="-8.000000" angle="90.000000" type="car" speed="0.000000" pos="47.499000" lane="e0_0" slope="0.000000" acceleration="0.000000"/>
    </timestep>
    <timestep time="17.000">
        <vehicle id="park0" x="47.500000" y="-8.000000" angle="90.000000" type="car" speed="0.000000" pos="47.499000" lane="e0_0" slope="0.000000" acceleration="0.000000"/>
    </timestep>
    <timestep time="18.000">
        <vehicle id="park0" x="47.500000" y="-8.000000" angle="90.000000" type="car" speed="0.000000" pos="47.499000" lane="e0_0" slope="0.000000" acceleration="0.000000"/>
    </timestep>
    <timestep time="19.000">
        <vehicle id="park0" x="47.500000" y="-8.000000" angle="90.000000" type="car" speed="0.000000" pos="47.499000" lane="e0_0" slope="0.000000" acceleration="0.000000"/>
    </timestep>
    <timestep time="20.000">
        <vehicle id="park0" x="47.500000" y="-8.000000" angle="90.000000" type="car" speed="0.000000" pos="47.499000" lane="e0_0" slope="0.000000" acceleration="0.000000"/>
    </timestep>
    <timestep time="21.000">
        <vehicle id="park0" x="47.500000" y="-8.000000" angle="90.000000" type="car" speed="0.000000" pos="47.499000" lane="e0_0" slope="0.000000" acceleration="0.000000"/>
    </timestep>
    <timestep time="22.000">
        <vehicle id="park0" x="47.500000" y="-8.000000" angle="90.000000" type="car" speed="0.000000" pos="47.499000" lane="e0_0" slope="0.000000" acceleration="0.000000"/>
    </timestep>
    <timestep time="23.000">
        <vehicle id="park0" x="47.500000" y="-8.000000" angle="90.000000" type="car" speed="0.000000" pos="47.499000" lane="e0_0" slope="0.000000" acceleration="0.000000"/>
    </timestep>
    <timestep time="24.000">
        <vehicle id="park0" x="47.500000" y="-8.000000" angle="90.000000" type="car" speed="0.000000" pos="47.499000" lane="e0_0" slope="0.000000" acceleration="0.000000"/>
    </timestep>
    <timestep time="25.000">
        <vehicle id="park0" x="47.500000" y="-8.000000" angle="90.000000" type="car" speed="0.000000" pos="47.499000" lane="e0_0" slope="0.000000" acceleration="0.000000"/>
    </timestep>
    <timestep time="26.000">
        <vehicle id="park0" x="47.500000" y="-8.000000" angle="90.000000" type="car" speed="0.000000" pos="47.499000" lane="e0_0" slope="0.000000" acceleration="0.000000"/>
    </timestep>
    <timestep time="27.000">
        <vehicle id="park0" x="47.500000" y="-8.000000" angle="90.000000" type="car" speed="0.000000" pos="47.499000" lane="e0_0" slope="0.000000" acceleration="0.000000"/>
    </timestep>
    <timestep time="28.000">
        <vehicle id="park0" x="47.500000" y="-8.000000" angle="90.000000" type="car" speed="0.000000" pos="47.499000" lane="e0_0" slope="0.000000" acceleration="0.000000"/>
    </timestep>
    <timestep time="29.000">
        <vehicle id="park0" x="47.500000" y="-8.000000" angle="90.000000" type="car" speed="0.000000" pos="47.499000" lane="e0_0" slope="0.000000" acceleration="0.000000"/>
    </timestep>
</fcd-export>
