<?xml version="1.0" encoding="UTF-8"?>

<!-- generated on 2026-07-12 13:24:56 by Eclipse SUMO sumo Version 1.20.0
<configuration xmlns:xsi="http://www.w3.org/2001/XMLSchema-instance" xsi:noNamespaceSchemaLocation="http://sumo.dlr.de/xsd/sumoConfiguration.xsd">

    <input>
        <net-file value="net.net.xml"/>
        <route-files value="rou.rou.xml"/>
    </input>

    <output>
        <precision value="6"/>
        <fcd-output value="golden.fcd.xml"/>
        <fcd-output.attributes value="x,y,angle,speed,pos,lane,posLat,acceleration"/>
        <save-state.times value="1"/>
        <save-state.files value="golden.state.xml"/>
    </output>

    <time>
        <begin value="0"/>
        <end value="60"/>
        <step-length value="1"/>
    </time>

    <processing>
        <step-method.ballistic value="false"/>
        <lateral-resolution value="0.8"/>
        <collision.action value="none"/>
        <time-to-teleport value="-1"/>
        <default.action-step-length value="1"/>
        <default.speeddev value="0"/>
    </processing>

    <report>
        <no-step-log value="true"/>
    </report>

    <random_number>
        <seed value="42"/>
    </random_number>

</configuration>
-->

<fcd-export xmlns:xsi="http://www.w3.org/2001/XMLSchema-instance" xsi:noNamespaceSchemaLocation="http://sumo.dlr.de/xsd/fcd_file.xsd">
    <timestep time="0.000">
        <vehicle id="v0" x="0.000000" y="-0.900000" angle="90.000000" speed="0.000000" pos="0.000000" lane="e0_0" acceleration="0.000000" posLat="1.500000"/>
    </timestep>
    <timestep time="1.000">
        <vehicle id="v0" x="2.600000" y="-0.900000" angle="90.000000" speed="2.600000" pos="2.600000" lane="e0_0" acceleration="2.600000" posLat="1.500000"/>
    </timestep>
    <timestep time="2.000">
        <vehicle id="v0" x="7.600000" y="-0.900000" angle="90.000000" speed="5.000000" pos="7.600000" lane="e0_0" acceleration="2.400000" posLat="1.500000"/>
    </timestep>
    <timestep time="3.000">
        <vehicle id="v0" x="12.600000" y="-0.900000" angle="90.000000" speed="5.000000" pos="12.600000" lane="e0_0" acceleration="0.000000" posLat="1.500000"/>
    </timestep>
    <timestep time="4.000">
        <vehicle id="v0" x="17.600000" y="-0.900000" angle="90.000000" speed="5.000000" pos="17.600000" lane="e0_0" acceleration="0.000000" posLat="1.500000"/>
        <vehicle id="v1" x="0.000000" y="-3.900000" angle="90.000000" speed="0.000000" pos="0.000000" lane="e0_0" acceleration="0.000000" posLat="-1.500000"/>
    </timestep>
    <timestep time="5.000">
        <vehicle id="v0" x="22.600000" y="-0.900000" angle="90.000000" speed="5.000000" pos="22.600000" lane="e0_0" acceleration="0.000000" posLat="1.500000"/>
        <vehicle id="v1" x="2.600000" y="-3.900000" angle="90.000000" speed="2.600000" pos="2.600000" lane="e0_0" acceleration="2.600000" posLat="-1.500000"/>
    </timestep>
    <timestep time="6.000">
        <vehicle id="v0" x="27.600000" y="-0.900000" angle="90.000000" speed="5.000000" pos="27.600000" lane="e0_0" acceleration="0.000000" posLat="1.500000"/>
        <vehicle id="v1" x="7.800000" y="-3.900000" angle="90.000000" speed="5.200000" pos="7.800000" lane="e0_0" acceleration="2.600000" posLat="-1.500000"/>
    </timestep>
    <timestep time="7.000">
        <vehicle id="v0" x="32.600000" y="-0.900000" angle="90.000000" speed="5.000000" pos="32.600000" lane="e0_0" acceleration="0.000000" posLat="1.500000"/>
        <vehicle id="v1" x="15.600000" y="-3.900000" angle="90.000000" speed="7.800000" pos="15.600000" lane="e0_0" acceleration="2.600000" posLat="-1.500000"/>
    </timestep>
    <timestep time="8.000">
        <vehicle id="v0" x="37.600000" y="-0.900000" angle="90.000000" speed="5.000000" pos="37.600000" lane="e0_0" acceleration="0.000000" posLat="1.500000"/>
        <vehicle id="v1" x="26.000000" y="-3.900000" angle="90.000000" speed="10.400000" pos="26.000000" lane="e0_0" acceleration="2.600000" posLat="-1.500000"/>
    </timestep>
    <timestep time="9.000">
        <vehicle id="v0" x="42.600000" y="-0.900000" angle="90.000000" speed="5.000000" pos="42.600000" lane="e0_0" acceleration="0.000000" posLat="1.500000"/>
        <vehicle id="v1" x="39.000000" y="-3.900000" angle="90.000000" speed="13.000000" pos="39.000000" lane="e0_0" acceleration="2.600000" posLat="-1.500000"/>
    </timestep>
    <timestep time="10.000">
        <vehicle id="v0" x="47.600000" y="-0.900000" angle="90.000000" speed="5.000000" pos="47.600000" lane="e0_0" acceleration="0.000000" posLat="1.500000"/>
        <vehicle id="v1" x="52.890000" y="-3.900000" angle="90.000000" speed="13.890000" pos="52.890000" lane="e0_0" acceleration="0.890000" posLat="-1.500000"/>
    </timestep>
    <timestep time="11.000">
        <vehicle id="v0" x="52.600000" y="-0.900000" angle="90.000000" speed="5.000000" pos="52.600000" lane="e0_0" acceleration="0.000000" posLat="1.500000"/>
        <vehicle id="v1" x="66.780000" y="-3.900000" angle="90.000000" speed="13.890000" pos="66.780000" lane="e0_0" acceleration="0.000000" posLat="-1.500000"/>
    </timestep>
    <timestep time="12.000">
        <vehicle id="v0" x="57.600000" y="-0.900000" angle="90.000000" speed="5.000000" pos="57.600000" lane="e0_0" acceleration="0.000000" posLat="1.500000"/>
        <vehicle id="v1" x="80.670000" y="-3.900000" angle="90.000000" speed="13.890000" pos="80.670000" lane="e0_0" acceleration="0.000000" posLat="-1.500000"/>
    </timestep>
    <timestep time="13.000">
        <vehicle id="v0" x="62.600000" y="-0.900000" angle="90.000000" speed="5.000000" pos="62.600000" lane="e0_0" acceleration="0.000000" posLat="1.500000"/>
        <vehicle id="v1" x="94.560000" y="-3.900000" angle="90.000000" speed="13.890000" pos="94.560000" lane="e0_0" acceleration="0.000000" posLat="-1.500000"/>
    </timestep>
    <timestep time="14.000">
        <vehicle id="v0" x="67.600000" y="-0.900000" angle="90.000000" speed="5.000000" pos="67.600000" lane="e0_0" acceleration="0.000000" posLat="1.500000"/>
        <vehicle id="v1" x="108.450000" y="-3.900000" angle="90.000000" speed="13.890000" pos="108.450000" lane="e0_0" acceleration="0.000000" posLat="-1.500000"/>
    </timestep>
    <timestep time="15.000">
        <vehicle id="v0" x="72.600000" y="-0.900000" angle="90.000000" speed="5.000000" pos="72.600000" lane="e0_0" acceleration="0.000000" posLat="1.500000"/>
        <vehicle id="v1" x="122.340000" y="-3.900000" angle="90.000000" speed="13.890000" pos="122.340000" lane="e0_0" acceleration="0.000000" posLat="-1.500000"/>
    </timestep>
    <timestep time="16.000">
        <vehicle id="v0" x="77.600000" y="-0.900000" angle="90.000000" speed="5.000000" pos="77.600000" lane="e0_0" acceleration="0.000000" posLat="1.500000"/>
        <vehicle id="v1" x="136.230000" y="-3.900000" angle="90.000000" speed="13.890000" pos="136.230000" lane="e0_0" acceleration="0.000000" posLat="-1.500000"/>
    </timestep>
    <timestep time="17.000">
        <vehicle id="v0" x="82.600000" y="-0.900000" angle="90.000000" speed="5.000000" pos="82.600000" lane="e0_0" acceleration="0.000000" posLat="1.500000"/>
        <vehicle id="v1" x="150.120000" y="-3.900000" angle="90.000000" speed="13.890000" pos="150.120000" lane="e0_0" acceleration="0.000000" posLat="-1.500000"/>
    </timestep>
    <timestep time="18.000">
        <vehicle id="v0" x="87.600000" y="-0.900000" angle="90.000000" speed="5.000000" pos="87.600000" lane="e0_0" acceleration="0.000000" posLat="1.500000"/>
        <vehicle id="v1" x="164.010000" y="-3.900000" angle="90.000000" speed="13.890000" pos="164.010000" lane="e0_0" acceleration="0.000000" posLat="-1.500000"/>
    </timestep>
    <timestep time="19.000">
        <vehicle id="v0" x="92.600000" y="-0.900000" angle="90.000000" speed="5.000000" pos="92.600000" lane="e0_0" acceleration="0.000000" posLat="1.500000"/>
        <vehicle id="v1" x="177.900000" y="-3.900000" angle="90.000000" speed="13.890000" pos="177.900000" lane="e0_0" acceleration="0.000000" posLat="-1.500000"/>
    </timestep>
    <timestep time="20.000">
        <vehicle id="v0" x="97.600000" y="-0.900000" angle="90.000000" speed="5.000000" pos="97.600000" lane="e0_0" acceleration="0.000000" posLat="1.500000"/>
        <vehicle id="v1" x="191.790000" y="-3.900000" angle="90.000000" speed="13.890000" pos="191.790000" lane="e0_0" acceleration="0.000000" posLat="-1.500000"/>
    </timestep>
    <timestep time="21.000">
        <vehicle id="v0" x="102.600000" y="-0.900000" angle="90.000000" speed="5.000000" pos="102.600000" lane="e0_0" acceleration="0.000000" posLat="1.500000"/>
        <vehicle id="v1" x="205.680000" y="-3.900000" angle="90.000000" speed="13.890000" pos="205.680000" lane="e0_0" acceleration="0.000000" posLat="-1.500000"/>
    </timestep>
    <timestep time="22.000">
        <vehicle id="v0" x="107.600000" y="-0.900000" angle="90.000000" speed="5.000000" pos="107.600000" lane="e0_0" acceleration="0.000000" posLat="1.500000"/>
        <vehicle id="v1" x="219.570000" y="-3.900000" angle="90.000000" speed="13.890000" pos="219.570000" lane="e0_0" acceleration="0.000000" posLat="-1.500000"/>
    </timestep>
    <timestep time="23.000">
        <vehicle id="v0" x="112.600000" y="-0.900000" angle="90.000000" speed="5.000000" pos="112.600000" lane="e0_0" acceleration="0.000000" posLat="1.500000"/>
        <vehicle id="v1" x="233.460000" y="-3.900000" angle="90.000000" speed="13.890000" pos="233.460000" lane="e0_0" acceleration="0.000000" posLat="-1.500000"/>
    </timestep>
    <timestep time="24.000">
        <vehicle id="v0" x="117.600000" y="-0.900000" angle="90.000000" speed="5.000000" pos="117.600000" lane="e0_0" acceleration="0.000000" posLat="1.500000"/>
        <vehicle id="v1" x="247.350000" y="-3.900000" angle="90.000000" speed="13.890000" pos="247.350000" lane="e0_0" acceleration="0.000000" posLat="-1.500000"/>
    </timestep>
    <timestep time="25.000">
        <vehicle id="v0" x="122.600000" y="-0.900000" angle="90.000000" speed="5.000000" pos="122.600000" lane="e0_0" acceleration="0.000000" posLat="1.500000"/>
        <vehicle id="v1" x="261.240000" y="-3.900000" angle="90.000000" speed="13.890000" pos="261.240000" lane="e0_0" acceleration="0.000000" posLat="-1.500000"/>
    </timestep>
    <timestep time="26.000">
        <vehicle id="v0" x="127.600000" y="-0.900000" angle="90.000000" speed="5.000000" pos="127.600000" lane="e0_0" acceleration="0.000000" posLat="1.500000"/>
        <vehicle id="v1" x="275.130000" y="-3.900000" angle="90.000000" speed="13.890000" pos="275.130000" lane="e0_0" acceleration="0.000000" posLat="-1.500000"/>
    </timestep>
    <timestep time="27.000">
        <vehicle id="v0" x="132.600000" y="-0.900000" angle="90.000000" speed="5.000000" pos="132.600000" lane="e0_0" acceleration="0.000000" posLat="1.500000"/>
        <vehicle id="v1" x="289.020000" y="-3.900000" angle="90.000000" speed="13.890000" pos="289.020000" lane="e0_0" acceleration="0.000000" posLat="-1.500000"/>
    </timestep>
    <timestep time="28.000">
        <vehicle id="v0" x="137.600000" y="-0.900000" angle="90.000000" speed="5.000000" pos="137.600000" lane="e0_0" acceleration="0.000000" posLat="1.500000"/>
        <vehicle id="v1" x="302.910000" y="-3.900000" angle="90.000000" speed="13.890000" pos="302.910000" lane="e0_0" acceleration="0.000000" posLat="-1.500000"/>
    </timestep>
    <timestep time="29.000">
        <vehicle id="v0" x="142.600000" y="-0.900000" angle="90.000000" speed="5.000000" pos="142.600000" lane="e0_0" acceleration="0.000000" posLat="1.500000"/>
        <vehicle id="v1" x="316.800000" y="-3.900000" angle="90.000000" speed="13.890000" pos="316.800000" lane="e0_0" acceleration="0.000000" posLat="-1.500000"/>
    </timestep>
    <timestep time="30.000">
        <vehicle id="v0" x="147.600000" y="-0.900000" angle="90.000000" speed="5.000000" pos="147.600000" lane="e0_0" acceleration="0.000000" posLat="1.500000"/>
        <vehicle id="v1" x="330.690000" y="-3.900000" angle="90.000000" speed="13.890000" pos="330.690000" lane="e0_0" acceleration="0.000000" posLat="-1.500000"/>
    </timestep>
    <timestep time="31.000">
        <vehicle id="v0" x="152.600000" y="-0.900000" angle="90.000000" speed="5.000000" pos="152.600000" lane="e0_0" acceleration="0.000000" posLat="1.500000"/>
        <vehicle id="v1" x="344.580000" y="-3.900000" angle="90.000000" speed="13.890000" pos="344.580000" lane="e0_0" acceleration="0.000000" posLat="-1.500000"/>
    </timestep>
    <timestep time="32.000">
        <vehicle id="v0" x="157.600000" y="-0.900000" angle="90.000000" speed="5.000000" pos="157.600000" lane="e0_0" acceleration="0.000000" posLat="1.500000"/>
        <vehicle id="v1" x="358.470000" y="-3.900000" angle="90.000000" speed="13.890000" pos="358.470000" lane="e0_0" acceleration="0.000000" posLat="-1.500000"/>
    </timestep>
    <timestep time="33.000">
        <vehicle id="v0" x="162.600000" y="-0.900000" angle="90.000000" speed="5.000000" pos="162.600000" lane="e0_0" acceleration="0.000000" posLat="1.500000"/>
        <vehicle id="v1" x="372.360000" y="-3.900000" angle="90.000000" speed="13.890000" pos="372.360000" lane="e0_0" acceleration="0.000000" posLat="-1.500000"/>
    </timestep>
    <timestep time="34.000">
        <vehicle id="v0" x="167.600000" y="-0.900000" angle="90.000000" speed="5.000000" pos="167.600000" lane="e0_0" acceleration="0.000000" posLat="1.500000"/>
        <vehicle id="v1" x="386.250000" y="-3.900000" angle="90.000000" speed="13.890000" pos="386.250000" lane="e0_0" acceleration="0.000000" posLat="-1.500000"/>
    </timestep>
    <timestep time="35.000">
        <vehicle id="v0" x="172.600000" y="-0.900000" angle="90.000000" speed="5.000000" pos="172.600000" lane="e0_0" acceleration="0.000000" posLat="1.500000"/>
        <vehicle id="v1" x="400.140000" y="-3.900000" angle="90.000000" speed="13.890000" pos="400.140000" lane="e0_0" acceleration="0.000000" posLat="-1.500000"/>
    </timestep>
    <timestep time="36.000">
        <vehicle id="v0" x="177.600000" y="-0.900000" angle="90.000000" speed="5.000000" pos="177.600000" lane="e0_0" acceleration="0.000000" posLat="1.500000"/>
        <vehicle id="v1" x="414.030000" y="-3.900000" angle="90.000000" speed="13.890000" pos="414.030000" lane="e0_0" acceleration="0.000000" posLat="-1.500000"/>
    </timestep>
    <timestep time="37.000">
        <vehicle id="v0" x="182.600000" y="-0.900000" angle="90.000000" speed="5.000000" pos="182.600000" lane="e0_0" acceleration="0.000000" posLat="1.500000"/>
        <vehicle id="v1" x="427.920000" y="-3.900000" angle="90.000000" speed="13.890000" pos="427.920000" lane="e0_0" acceleration="0.000000" posLat="-1.500000"/>
    </timestep>
    <timestep time="38.000">
        <vehicle id="v0" x="187.600000" y="-0.900000" angle="90.000000" speed="5.000000" pos="187.600000" lane="e0_0" acceleration="0.000000" posLat="1.500000"/>
        <vehicle id="v1" x="441.810000" y="-3.900000" angle="90.000000" speed="13.890000" pos="441.810000" lane="e0_0" acceleration="0.000000" posLat="-1.500000"/>
    </timestep>
    <timestep time="39.000">
        <vehicle id="v0" x="192.600000" y="-0.900000" angle="90.000000" speed="5.000000" pos="192.600000" lane="e0_0" acceleration="0.000000" posLat="1.500000"/>
        <vehicle id="v1" x="455.700000" y="-3.900000" angle="90.000000" speed="13.890000" pos="455.700000" lane="e0_0" acceleration="0.000000" posLat="-1.500000"/>
    </timestep>
    <timestep time="40.000">
        <vehicle id="v0" x="197.600000" y="-0.900000" angle="90.000000" speed="5.000000" pos="197.600000" lane="e0_0" acceleration="0.000000" posLat="1.500000"/>
        <vehicle id="v1" x="469.590000" y="-3.900000" angle="90.000000" speed="13.890000" pos="469.590000" lane="e0_0" acceleration="0.000000" posLat="-1.500000"/>
    </timestep>
    <timestep time="41.000">
        <vehicle id="v0" x="202.600000" y="-0.900000" angle="90.000000" speed="5.000000" pos="202.600000" lane="e0_0" acceleration="0.000000" posLat="1.500000"/>
        <vehicle id="v1" x="483.480000" y="-3.900000" angle="90.000000" speed="13.890000" pos="483.480000" lane="e0_0" acceleration="0.000000" posLat="-1.500000"/>
    </timestep>
    <timestep time="42.000">
        <vehicle id="v0" x="207.600000" y="-0.900000" angle="90.000000" speed="5.000000" pos="207.600000" lane="e0_0" acceleration="0.000000" posLat="1.500000"/>
        <vehicle id="v1" x="497.370000" y="-3.900000" angle="90.000000" speed="13.890000" pos="497.370000" lane="e0_0" acceleration="0.000000" posLat="-1.500000"/>
    </timestep>
    <timestep time="43.000">
        <vehicle id="v0" x="212.600000" y="-0.900000" angle="90.000000" speed="5.000000" pos="212.600000" lane="e0_0" acceleration="0.000000" posLat="1.500000"/>
        <vehicle id="v1" x="511.260000" y="-3.900000" angle="90.000000" speed="13.890000" pos="511.260000" lane="e0_0" acceleration="0.000000" posLat="-1.500000"/>
    </timestep>
    <timestep time="44.000">
        <vehicle id="v0" x="217.600000" y="-0.900000" angle="90.000000" speed="5.000000" pos="217.600000" lane="e0_0" acceleration="0.000000" posLat="1.500000"/>
        <vehicle id="v1" x="525.150000" y="-3.900000" angle="90.000000" speed="13.890000" pos="525.150000" lane="e0_0" acceleration="0.000000" posLat="-1.500000"/>
    </timestep>
    <timestep time="45.000">
        <vehicle id="v0" x="222.600000" y="-0.900000" angle="90.000000" speed="5.000000" pos="222.600000" lane="e0_0" acceleration="0.000000" posLat="1.500000"/>
        <vehicle id="v1" x="539.040000" y="-3.900000" angle="90.000000" speed="13.890000" pos="539.040000" lane="e0_0" acceleration="0.000000" posLat="-1.500000"/>
    </timestep>
    <timestep time="46.000">
        <vehicle id="v0" x="227.600000" y="-0.900000" angle="90.000000" speed="5.000000" pos="227.600000" lane="e0_0" acceleration="0.000000" posLat="1.500000"/>
        <vehicle id="v1" x="552.930000" y="-3.900000" angle="90.000000" speed="13.890000" pos="552.930000" lane="e0_0" acceleration="0.000000" posLat="-1.500000"/>
    </timestep>
    <timestep time="47.000">
        <vehicle id="v0" x="232.600000" y="-0.900000" angle="90.000000" speed="5.000000" pos="232.600000" lane="e0_0" acceleration="0.000000" posLat="1.500000"/>
        <vehicle id="v1" x="566.820000" y="-3.900000" angle="90.000000" speed="13.890000" pos="566.820000" lane="e0_0" acceleration="0.000000" posLat="-1.500000"/>
    </timestep>
    <timestep time="48.000">
        <vehicle id="v0" x="237.600000" y="-0.900000" angle="90.000000" speed="5.000000" pos="237.600000" lane="e0_0" acceleration="0.000000" posLat="1.500000"/>
        <vehicle id="v1" x="580.710000" y="-3.900000" angle="90.000000" speed="13.890000" pos="580.710000" lane="e0_0" acceleration="0.000000" posLat="-1.500000"/>
    </timestep>
    <timestep time="49.000">
        <vehicle id="v0" x="242.600000" y="-0.900000" angle="90.000000" speed="5.000000" pos="242.600000" lane="e0_0" acceleration="0.000000" posLat="1.500000"/>
        <vehicle id="v1" x="594.600000" y="-3.900000" angle="90.000000" speed="13.890000" pos="594.600000" lane="e0_0" acceleration="0.000000" posLat="-1.500000"/>
    </timestep>
    <timestep time="50.000">
        <vehicle id="v0" x="247.600000" y="-0.900000" angle="90.000000" speed="5.000000" pos="247.600000" lane="e0_0" acceleration="0.000000" posLat="1.500000"/>
        <vehicle id="v1" x="608.490000" y="-3.900000" angle="90.000000" speed="13.890000" pos="608.490000" lane="e0_0" acceleration="0.000000" posLat="-1.500000"/>
    </timestep>
    <timestep time="51.000">
        <vehicle id="v0" x="252.600000" y="-0.900000" angle="90.000000" speed="5.000000" pos="252.600000" lane="e0_0" acceleration="0.000000" posLat="1.500000"/>
        <vehicle id="v1" x="622.380000" y="-3.900000" angle="90.000000" speed="13.890000" pos="622.380000" lane="e0_0" acceleration="0.000000" posLat="-1.500000"/>
    </timestep>
    <timestep time="52.000">
        <vehicle id="v0" x="257.600000" y="-0.900000" angle="90.000000" speed="5.000000" pos="257.600000" lane="e0_0" acceleration="0.000000" posLat="1.500000"/>
        <vehicle id="v1" x="636.270000" y="-3.900000" angle="90.000000" speed="13.890000" pos="636.270000" lane="e0_0" acceleration="0.000000" posLat="-1.500000"/>
    </timestep>
    <timestep time="53.000">
        <vehicle id="v0" x="262.600000" y="-0.900000" angle="90.000000" speed="5.000000" pos="262.600000" lane="e0_0" acceleration="0.000000" posLat="1.500000"/>
        <vehicle id="v1" x="650.160000" y="-3.900000" angle="90.000000" speed="13.890000" pos="650.160000" lane="e0_0" acceleration="0.000000" posLat="-1.500000"/>
    </timestep>
    <timestep time="54.000">
        <vehicle id="v0" x="267.600000" y="-0.900000" angle="90.000000" speed="5.000000" pos="267.600000" lane="e0_0" acceleration="0.000000" posLat="1.500000"/>
        <vehicle id="v1" x="664.050000" y="-3.900000" angle="90.000000" speed="13.890000" pos="664.050000" lane="e0_0" acceleration="0.000000" posLat="-1.500000"/>
    </timestep>
    <timestep time="55.000">
        <vehicle id="v0" x="272.600000" y="-0.900000" angle="90.000000" speed="5.000000" pos="272.600000" lane="e0_0" acceleration="0.000000" posLat="1.500000"/>
        <vehicle id="v1" x="677.940000" y="-3.900000" angle="90.000000" speed="13.890000" pos="677.940000" lane="e0_0" acceleration="0.000000" posLat="-1.500000"/>
    </timestep>
    <timestep time="56.000">
        <vehicle id="v0" x="277.600000" y="-0.900000" angle="90.000000" speed="5.000000" pos="277.600000" lane="e0_0" acceleration="0.000000" posLat="1.500000"/>
        <vehicle id="v1" x="691.830000" y="-3.900000" angle="90.000000" speed="13.890000" pos="691.830000" lane="e0_0" acceleration="0.000000" posLat="-1.500000"/>
    </timestep>
    <timestep time="57.000">
        <vehicle id="v0" x="282.600000" y="-0.900000" angle="90.000000" speed="5.000000" pos="282.600000" lane="e0_0" acceleration="0.000000" posLat="1.500000"/>
        <vehicle id="v1" x="705.720000" y="-3.900000" angle="90.000000" speed="13.890000" pos="705.720000" lane="e0_0" acceleration="0.000000" posLat="-1.500000"/>
    </timestep>
    <timestep time="58.000">
        <vehicle id="v0" x="287.600000" y="-0.900000" angle="90.000000" speed="5.000000" pos="287.600000" lane="e0_0" acceleration="0.000000" posLat="1.500000"/>
        <vehicle id="v1" x="719.610000" y="-3.900000" angle="90.000000" speed="13.890000" pos="719.610000" lane="e0_0" acceleration="0.000000" posLat="-1.500000"/>
    </timestep>
    <timestep time="59.000">
        <vehicle id="v0" x="292.600000" y="-0.900000" angle="90.000000" speed="5.000000" pos="292.600000" lane="e0_0" acceleration="0.000000" posLat="1.500000"/>
        <vehicle id="v1" x="733.500000" y="-3.900000" angle="90.000000" speed="13.890000" pos="733.500000" lane="e0_0" acceleration="0.000000" posLat="-1.500000"/>
    </timestep>
</fcd-export>
