<?xml version="1.0" encoding="UTF-8"?>

<!-- generated on 2026-07-08 08:29:21 by Eclipse SUMO sumo Version 1.20.0
<configuration xmlns:xsi="http://www.w3.org/2001/XMLSchema-instance" xsi:noNamespaceSchemaLocation="http://sumo.dlr.de/xsd/sumoConfiguration.xsd">

    <input>
        <net-file value="net.net.xml"/>
        <route-files value="rou.rou.xml"/>
    </input>

    <output>
        <precision value="6"/>
        <fcd-output value="golden.fcd.xml"/>
        <fcd-output.acceleration value="true"/>
        <save-state.times value="1"/>
        <save-state.files value="golden.state.xml"/>
    </output>

    <time>
        <begin value="0"/>
        <end value="20"/>
        <step-length value="1"/>
    </time>

    <processing>
        <step-method.ballistic value="false"/>
        <collision.action value="none"/>
        <time-to-teleport value="-1"/>
        <lanechange.duration value="0"/>
        <default.action-step-length value="2"/>
        <default.speeddev value="0"/>
    </processing>

    <report>
        <no-step-log value="true"/>
    </report>

    <random_number>
        <seed value="42"/>
    </random_number>

</configuration>
-->

<fcd-export xmlns:xsi="http://www.w3.org/2001/XMLSchema-instance" xsi:noNamespaceSchemaLocation="http://sumo.dlr.de/xsd/fcd_file.xsd">
    <timestep time="0.000">
        <vehicle id="veh0" x="0.000000" y="-1.600000" angle="90.000000" type="passenger0" speed="0.000000" pos="0.000000" lane="e0_0" slope="0.000000" acceleration="0.000000"/>
    </timestep>
    <timestep time="1.000">
        <vehicle id="veh0" x="2.600000" y="-1.600000" angle="90.000000" type="passenger0" speed="2.600000" pos="2.600000" lane="e0_0" slope="0.000000" acceleration="2.600000"/>
    </timestep>
    <timestep time="2.000">
        <vehicle id="veh0" x="7.800000" y="-1.600000" angle="90.000000" type="passenger0" speed="5.200000" pos="7.800000" lane="e0_0" slope="0.000000" acceleration="2.600000"/>
    </timestep>
    <timestep time="3.000">
        <vehicle id="veh0" x="15.600000" y="-1.600000" angle="90.000000" type="passenger0" speed="7.800000" pos="15.600000" lane="e0_0" slope="0.000000" acceleration="2.600000"/>
    </timestep>
    <timestep time="4.000">
        <vehicle id="veh0" x="26.000000" y="-1.600000" angle="90.000000" type="passenger0" speed="10.400000" pos="26.000000" lane="e0_0" slope="0.000000" acceleration="2.600000"/>
    </timestep>
    <timestep time="5.000">
        <vehicle id="veh0" x="38.145000" y="-1.600000" angle="90.000000" type="passenger0" speed="12.145000" pos="38.145000" lane="e0_0" slope="0.000000" acceleration="1.745000"/>
    </timestep>
    <timestep time="6.000">
        <vehicle id="veh0" x="52.035000" y="-1.600000" angle="90.000000" type="passenger0" speed="13.890000" pos="52.035000" lane="e0_0" slope="0.000000" acceleration="1.745000"/>
    </timestep>
    <timestep time="7.000">
        <vehicle id="veh0" x="65.925000" y="-1.600000" angle="90.000000" type="passenger0" speed="13.890000" pos="65.925000" lane="e0_0" slope="0.000000" acceleration="0.000000"/>
    </timestep>
    <timestep time="8.000">
        <vehicle id="veh0" x="79.815000" y="-1.600000" angle="90.000000" type="passenger0" speed="13.890000" pos="79.815000" lane="e0_0" slope="0.000000" acceleration="0.000000"/>
    </timestep>
    <timestep time="9.000">
        <vehicle id="veh0" x="93.705000" y="-1.600000" angle="90.000000" type="passenger0" speed="13.890000" pos="93.705000" lane="e0_0" slope="0.000000" acceleration="0.000000"/>
    </timestep>
    <timestep time="10.000">
        <vehicle id="veh0" x="107.595000" y="-1.600000" angle="90.000000" type="passenger0" speed="13.890000" pos="107.595000" lane="e0_0" slope="0.000000" acceleration="0.000000"/>
    </timestep>
    <timestep time="11.000">
        <vehicle id="veh0" x="121.485000" y="-1.600000" angle="90.000000" type="passenger0" speed="13.890000" pos="121.485000" lane="e0_0" slope="0.000000" acceleration="0.000000"/>
    </timestep>
    <timestep time="12.000">
        <vehicle id="veh0" x="135.375000" y="-1.600000" angle="90.000000" type="passenger0" speed="13.890000" pos="135.375000" lane="e0_0" slope="0.000000" acceleration="0.000000"/>
    </timestep>
    <timestep time="13.000">
        <vehicle id="veh0" x="149.265000" y="-1.600000" angle="90.000000" type="passenger0" speed="13.890000" pos="149.265000" lane="e0_0" slope="0.000000" acceleration="0.000000"/>
    </timestep>
    <timestep time="14.000">
        <vehicle id="veh0" x="163.155000" y="-1.600000" angle="90.000000" type="passenger0" speed="13.890000" pos="163.155000" lane="e0_0" slope="0.000000" acceleration="0.000000"/>
    </timestep>
    <timestep time="15.000">
        <vehicle id="veh0" x="177.045000" y="-1.600000" angle="90.000000" type="passenger0" speed="13.890000" pos="177.045000" lane="e0_0" slope="0.000000" acceleration="0.000000"/>
    </timestep>
    <timestep time="16.000">
        <vehicle id="veh0" x="190.935000" y="-1.600000" angle="90.000000" type="passenger0" speed="13.890000" pos="190.935000" lane="e0_0" slope="0.000000" acceleration="0.000000"/>
    </timestep>
    <timestep time="17.000">
        <vehicle id="veh0" x="204.825000" y="-1.600000" angle="90.000000" type="passenger0" speed="13.890000" pos="204.825000" lane="e0_0" slope="0.000000" acceleration="0.000000"/>
    </timestep>
    <timestep time="18.000">
        <vehicle id="veh0" x="218.715000" y="-1.600000" angle="90.000000" type="passenger0" speed="13.890000" pos="218.715000" lane="e0_0" slope="0.000000" acceleration="0.000000"/>
    </timestep>
    <timestep time="19.000">
        <vehicle id="veh0" x="232.605000" y="-1.600000" angle="90.000000" type="passenger0" speed="13.890000" pos="232.605000" lane="e0_0" slope="0.000000" acceleration="0.000000"/>
    </timestep>
</fcd-export>
