<?xml version="1.0" encoding="UTF-8"?>

<!-- generated on 2026-07-11 09:45:39 by Eclipse SUMO sumo Version 1.20.0
<configuration xmlns:xsi="http://www.w3.org/2001/XMLSchema-instance" xsi:noNamespaceSchemaLocation="http://sumo.dlr.de/xsd/sumoConfiguration.xsd">

    <input>
        <net-file value="net.net.xml"/>
        <route-files value="rou.rou.xml"/>
    </input>

    <output>
        <precision value="6"/>
        <fcd-output value="golden.fcd.xml"/>
        <fcd-output.acceleration value="true"/>
    </output>

    <time>
        <begin value="0"/>
        <end value="120"/>
        <step-length value="1"/>
    </time>

    <processing>
        <step-method.ballistic value="false"/>
        <time-to-teleport value="-1"/>
        <default.action-step-length value="1"/>
        <default.speeddev value="0"/>
    </processing>

    <report>
        <no-step-log value="true"/>
    </report>

    <random_number>
        <seed value="42"/>
    </random_number>

</configuration>
-->

<fcd-export xmlns:xsi="http://www.w3.org/2001/XMLSchema-instance" xsi:noNamespaceSchemaLocation="http://sumo.dlr.de/xsd/fcd_file.xsd">
    <timestep time="0.000">
        <vehicle id="0" x="1.600000" y="8.300000" angle="0.000000" type="DEFAULT_VEHTYPE" speed="0.000000" pos="5.100000" lane="A0A1_0" slope="0.000000" acceleration="0.000000"/>
        <vehicle id="f.0" x="-1.600000" y="987.700000" angle="180.000000" type="DEFAULT_VEHTYPE" speed="13.890000" pos="5.100000" lane="A2A1_0" slope="0.000000" acceleration="0.000000"/>
    </timestep>
    <timestep time="1.000">
        <vehicle id="0" x="1.600000" y="10.900000" angle="0.000000" type="DEFAULT_VEHTYPE" speed="2.600000" pos="7.700000" lane="A0A1_0" slope="0.000000" acceleration="2.600000"/>
        <vehicle id="f.0" x="-1.600000" y="973.810000" angle="180.000000" type="DEFAULT_VEHTYPE" speed="13.890000" pos="18.990000" lane="A2A1_0" slope="0.000000" acceleration="0.000000"/>
    </timestep>
    <timestep time="2.000">
        <vehicle id="0" x="1.600000" y="16.100000" angle="0.000000" type="DEFAULT_VEHTYPE" speed="5.200000" pos="12.900000" lane="A0A1_0" slope="0.000000" acceleration="2.600000"/>
        <vehicle id="f.0" x="-1.600000" y="959.920000" angle="180.000000" type="DEFAULT_VEHTYPE" speed="13.890000" pos="32.880000" lane="A2A1_0" slope="0.000000" acceleration="0.000000"/>
    </timestep>
    <timestep time="3.000">
        <vehicle id="0" x="1.600000" y="23.900000" angle="0.000000" type="DEFAULT_VEHTYPE" speed="7.800000" pos="20.700000" lane="A0A1_0" slope="0.000000" acceleration="2.600000"/>
        <vehicle id="f.0" x="-1.600000" y="946.030000" angle="180.000000" type="DEFAULT_VEHTYPE" speed="13.890000" pos="46.770000" lane="A2A1_0" slope="0.000000" acceleration="0.000000"/>
    </timestep>
    <timestep time="4.000">
        <vehicle id="0" x="1.600000" y="34.300000" angle="0.000000" type="DEFAULT_VEHTYPE" speed="10.400000" pos="31.100000" lane="A0A1_0" slope="0.000000" acceleration="2.600000"/>
        <vehicle id="f.0" x="-1.600000" y="932.140000" angle="180.000000" type="DEFAULT_VEHTYPE" speed="13.890000" pos="60.660000" lane="A2A1_0" slope="0.000000" acceleration="0.000000"/>
    </timestep>
    <timestep time="5.000">
        <vehicle id="0" x="1.600000" y="47.300000" angle="0.000000" type="DEFAULT_VEHTYPE" speed="13.000000" pos="44.100000" lane="A0A1_0" slope="0.000000" acceleration="2.600000"/>
        <vehicle id="f.0" x="-1.600000" y="918.250000" angle="180.000000" type="DEFAULT_VEHTYPE" speed="13.890000" pos="74.550000" lane="A2A1_0" slope="0.000000" acceleration="0.000000"/>
    </timestep>
    <timestep time="6.000">
        <vehicle id="0" x="1.600000" y="61.190000" angle="0.000000" type="DEFAULT_VEHTYPE" speed="13.890000" pos="57.990000" lane="A0A1_0" slope="0.000000" acceleration="0.890000"/>
        <vehicle id="f.0" x="-1.600000" y="904.360000" angle="180.000000" type="DEFAULT_VEHTYPE" speed="13.890000" pos="88.440000" lane="A2A1_0" slope="0.000000" acceleration="0.000000"/>
        <vehicle id="f.1" x="-1.600000" y="987.700000" angle="180.000000" type="DEFAULT_VEHTYPE" speed="13.890000" pos="5.100000" lane="A2A1_0" slope="0.000000" acceleration="0.000000"/>
    </timestep>
    <timestep time="7.000">
        <vehicle id="0" x="1.600000" y="75.080000" angle="0.000000" type="DEFAULT_VEHTYPE" speed="13.890000" pos="71.880000" lane="A0A1_0" slope="0.000000" acceleration="0.000000"/>
        <vehicle id="f.0" x="-1.600000" y="890.470000" angle="180.000000" type="DEFAULT_VEHTYPE" speed="13.890000" pos="102.330000" lane="A2A1_0" slope="0.000000" acceleration="0.000000"/>
        <vehicle id="f.1" x="-1.600000" y="973.810000" angle="180.000000" type="DEFAULT_VEHTYPE" speed="13.890000" pos="18.990000" lane="A2A1_0" slope="0.000000" acceleration="0.000000"/>
    </timestep>
    <timestep time="8.000">
        <vehicle id="0" x="1.600000" y="88.970000" angle="0.000000" type="DEFAULT_VEHTYPE" speed="13.890000" pos="85.770000" lane="A0A1_0" slope="0.000000" acceleration="0.000000"/>
        <vehicle id="f.0" x="-1.600000" y="876.580000" angle="180.000000" type="DEFAULT_VEHTYPE" speed="13.890000" pos="116.220000" lane="A2A1_0" slope="0.000000" acceleration="0.000000"/>
        <vehicle id="f.1" x="-1.600000" y="959.920000" angle="180.000000" type="DEFAULT_VEHTYPE" speed="13.890000" pos="32.880000" lane="A2A1_0" slope="0.000000" acceleration="0.000000"/>
    </timestep>
    <timestep time="9.000">
        <vehicle id="0" x="1.600000" y="102.860000" angle="0.000000" type="DEFAULT_VEHTYPE" speed="13.890000" pos="99.660000" lane="A0A1_0" slope="0.000000" acceleration="0.000000"/>
        <vehicle id="f.0" x="-1.600000" y="862.690000" angle="180.000000" type="DEFAULT_VEHTYPE" speed="13.890000" pos="130.110000" lane="A2A1_0" slope="0.000000" acceleration="0.000000"/>
        <vehicle id="f.1" x="-1.600000" y="946.030000" angle="180.000000" type="DEFAULT_VEHTYPE" speed="13.890000" pos="46.770000" lane="A2A1_0" slope="0.000000" acceleration="0.000000"/>
    </timestep>
    <timestep time="10.000">
        <vehicle id="0" x="1.600000" y="116.750000" angle="0.000000" type="DEFAULT_VEHTYPE" speed="13.890000" pos="113.550000" lane="A0A1_0" slope="0.000000" acceleration="0.000000"/>
        <vehicle id="f.0" x="-1.600000" y="848.800000" angle="180.000000" type="DEFAULT_VEHTYPE" speed="13.890000" pos="144.000000" lane="A2A1_0" slope="0.000000" acceleration="0.000000"/>
        <vehicle id="f.1" x="-1.600000" y="932.140000" angle="180.000000" type="DEFAULT_VEHTYPE" speed="13.890000" pos="60.660000" lane="A2A1_0" slope="0.000000" acceleration="0.000000"/>
    </timestep>
    <timestep time="11.000">
        <vehicle id="0" x="1.600000" y="130.640000" angle="0.000000" type="DEFAULT_VEHTYPE" speed="13.890000" pos="127.440000" lane="A0A1_0" slope="0.000000" acceleration="0.000000"/>
        <vehicle id="f.0" x="-1.600000" y="834.910000" angle="180.000000" type="DEFAULT_VEHTYPE" speed="13.890000" pos="157.890000" lane="A2A1_0" slope="0.000000" acceleration="0.000000"/>
        <vehicle id="f.1" x="-1.600000" y="918.250000" angle="180.000000" type="DEFAULT_VEHTYPE" speed="13.890000" pos="74.550000" lane="A2A1_0" slope="0.000000" acceleration="0.000000"/>
    </timestep>
    <timestep time="12.000">
        <vehicle id="0" x="1.600000" y="144.530000" angle="0.000000" type="DEFAULT_VEHTYPE" speed="13.890000" pos="141.330000" lane="A0A1_0" slope="0.000000" acceleration="0.000000"/>
        <vehicle id="f.0" x="-1.600000" y="821.020000" angle="180.000000" type="DEFAULT_VEHTYPE" speed="13.890000" pos="171.780000" lane="A2A1_0" slope="0.000000" acceleration="0.000000"/>
        <vehicle id="f.1" x="-1.600000" y="904.360000" angle="180.000000" type="DEFAULT_VEHTYPE" speed="13.890000" pos="88.440000" lane="A2A1_0" slope="0.000000" acceleration="0.000000"/>
        <vehicle id="f.2" x="-1.600000" y="987.700000" angle="180.000000" type="DEFAULT_VEHTYPE" speed="13.890000" pos="5.100000" lane="A2A1_0" slope="0.000000" acceleration="0.000000"/>
    </timestep>
    <timestep time="13.000">
        <vehicle id="0" x="1.600000" y="158.420000" angle="0.000000" type="DEFAULT_VEHTYPE" speed="13.890000" pos="155.220000" lane="A0A1_0" slope="0.000000" acceleration="0.000000"/>
        <vehicle id="f.0" x="-1.600000" y="807.130000" angle="180.000000" type="DEFAULT_VEHTYPE" speed="13.890000" pos="185.670000" lane="A2A1_0" slope="0.000000" acceleration="0.000000"/>
        <vehicle id="f.1" x="-1.600000" y="890.470000" angle="180.000000" type="DEFAULT_VEHTYPE" speed="13.890000" pos="102.330000" lane="A2A1_0" slope="0.000000" acceleration="0.000000"/>
        <vehicle id="f.2" x="-1.600000" y="973.810000" angle="180.000000" type="DEFAULT_VEHTYPE" speed="13.890000" pos="18.990000" lane="A2A1_0" slope="0.000000" acceleration="0.000000"/>
    </timestep>
    <timestep time="14.000">
        <vehicle id="0" x="1.600000" y="172.310000" angle="0.000000" type="DEFAULT_VEHTYPE" speed="13.890000" pos="169.110000" lane="A0A1_0" slope="0.000000" acceleration="0.000000"/>
        <vehicle id="f.0" x="-1.600000" y="793.240000" angle="180.000000" type="DEFAULT_VEHTYPE" speed="13.890000" pos="199.560000" lane="A2A1_0" slope="0.000000" acceleration="0.000000"/>
        <vehicle id="f.1" x="-1.600000" y="876.580000" angle="180.000000" type="DEFAULT_VEHTYPE" speed="13.890000" pos="116.220000" lane="A2A1_0" slope="0.000000" acceleration="0.000000"/>
        <vehicle id="f.2" x="-1.600000" y="959.920000" angle="180.000000" type="DEFAULT_VEHTYPE" speed="13.890000" pos="32.880000" lane="A2A1_0" slope="0.000000" acceleration="0.000000"/>
    </timestep>
    <timestep time="15.000">
        <vehicle id="0" x="1.600000" y="186.200000" angle="0.000000" type="DEFAULT_VEHTYPE" speed="13.890000" pos="183.000000" lane="A0A1_0" slope="0.000000" acceleration="0.000000"/>
        <vehicle id="f.0" x="-1.600000" y="779.350000" angle="180.000000" type="DEFAULT_VEHTYPE" speed="13.890000" pos="213.450000" lane="A2A1_0" slope="0.000000" acceleration="0.000000"/>
        <vehicle id="f.1" x="-1.600000" y="862.690000" angle="180.000000" type="DEFAULT_VEHTYPE" speed="13.890000" pos="130.110000" lane="A2A1_0" slope="0.000000" acceleration="0.000000"/>
        <vehicle id="f.2" x="-1.600000" y="946.030000" angle="180.000000" type="DEFAULT_VEHTYPE" speed="13.890000" pos="46.770000" lane="A2A1_0" slope="0.000000" acceleration="0.000000"/>
    </timestep>
    <timestep time="16.000">
        <vehicle id="0" x="1.600000" y="200.090000" angle="0.000000" type="DEFAULT_VEHTYPE" speed="13.890000" pos="196.890000" lane="A0A1_0" slope="0.000000" acceleration="0.000000"/>
        <vehicle id="f.0" x="-1.600000" y="765.460000" angle="180.000000" type="DEFAULT_VEHTYPE" speed="13.890000" pos="227.340000" lane="A2A1_0" slope="0.000000" acceleration="0.000000"/>
        <vehicle id="f.1" x="-1.600000" y="848.800000" angle="180.000000" type="DEFAULT_VEHTYPE" speed="13.890000" pos="144.000000" lane="A2A1_0" slope="0.000000" acceleration="0.000000"/>
        <vehicle id="f.2" x="-1.600000" y="932.140000" angle="180.000000" type="DEFAULT_VEHTYPE" speed="13.890000" pos="60.660000" lane="A2A1_0" slope="0.000000" acceleration="0.000000"/>
    </timestep>
    <timestep time="17.000">
        <vehicle id="0" x="1.600000" y="213.980000" angle="0.000000" type="DEFAULT_VEHTYPE" speed="13.890000" pos="210.780000" lane="A0A1_0" slope="0.000000" acceleration="0.000000"/>
        <vehicle id="f.0" x="-1.600000" y="751.570000" angle="180.000000" type="DEFAULT_VEHTYPE" speed="13.890000" pos="241.230000" lane="A2A1_0" slope="0.000000" acceleration="0.000000"/>
        <vehicle id="f.1" x="-1.600000" y="834.910000" angle="180.000000" type="DEFAULT_VEHTYPE" speed="13.890000" pos="157.890000" lane="A2A1_0" slope="0.000000" acceleration="0.000000"/>
        <vehicle id="f.2" x="-1.600000" y="918.250000" angle="180.000000" type="DEFAULT_VEHTYPE" speed="13.890000" pos="74.550000" lane="A2A1_0" slope="0.000000" acceleration="0.000000"/>
    </timestep>
    <timestep time="18.000">
        <vehicle id="0" x="1.600000" y="227.870000" angle="0.000000" type="DEFAULT_VEHTYPE" speed="13.890000" pos="224.670000" lane="A0A1_0" slope="0.000000" acceleration="0.000000"/>
        <vehicle id="f.0" x="-1.600000" y="737.680000" angle="180.000000" type="DEFAULT_VEHTYPE" speed="13.890000" pos="255.120000" lane="A2A1_0" slope="0.000000" acceleration="0.000000"/>
        <vehicle id="f.1" x="-1.600000" y="821.020000" angle="180.000000" type="DEFAULT_VEHTYPE" speed="13.890000" pos="171.780000" lane="A2A1_0" slope="0.000000" acceleration="0.000000"/>
        <vehicle id="f.2" x="-1.600000" y="904.360000" angle="180.000000" type="DEFAULT_VEHTYPE" speed="13.890000" pos="88.440000" lane="A2A1_0" slope="0.000000" acceleration="0.000000"/>
        <vehicle id="f.3" x="-1.600000" y="987.700000" angle="180.000000" type="DEFAULT_VEHTYPE" speed="13.890000" pos="5.100000" lane="A2A1_0" slope="0.000000" acceleration="0.000000"/>
    </timestep>
    <timestep time="19.000">
        <vehicle id="0" x="1.600000" y="241.760000" angle="0.000000" type="DEFAULT_VEHTYPE" speed="13.890000" pos="238.560000" lane="A0A1_0" slope="0.000000" acceleration="0.000000"/>
        <vehicle id="f.0" x="-1.600000" y="723.790000" angle="180.000000" type="DEFAULT_VEHTYPE" speed="13.890000" pos="269.010000" lane="A2A1_0" slope="0.000000" acceleration="0.000000"/>
        <vehicle id="f.1" x="-1.600000" y="807.130000" angle="180.000000" type="DEFAULT_VEHTYPE" speed="13.890000" pos="185.670000" lane="A2A1_0" slope="0.000000" acceleration="0.000000"/>
        <vehicle id="f.2" x="-1.600000" y="890.470000" angle="180.000000" type="DEFAULT_VEHTYPE" speed="13.890000" pos="102.330000" lane="A2A1_0" slope="0.000000" acceleration="0.000000"/>
        <vehicle id="f.3" x="-1.600000" y="973.810000" angle="180.000000" type="DEFAULT_VEHTYPE" speed="13.890000" pos="18.990000" lane="A2A1_0" slope="0.000000" acceleration="0.000000"/>
    </timestep>
    <timestep time="20.000">
        <vehicle id="0" x="1.600000" y="255.650000" angle="0.000000" type="DEFAULT_VEHTYPE" speed="13.890000" pos="252.450000" lane="A0A1_0" slope="0.000000" acceleration="0.000000"/>
        <vehicle id="f.0" x="-1.600000" y="709.900000" angle="180.000000" type="DEFAULT_VEHTYPE" speed="13.890000" pos="282.900000" lane="A2A1_0" slope="0.000000" acceleration="0.000000"/>
        <vehicle id="f.1" x="-1.600000" y="793.240000" angle="180.000000" type="DEFAULT_VEHTYPE" speed="13.890000" pos="199.560000" lane="A2A1_0" slope="0.000000" acceleration="0.000000"/>
        <vehicle id="f.2" x="-1.600000" y="876.580000" angle="180.000000" type="DEFAULT_VEHTYPE" speed="13.890000" pos="116.220000" lane="A2A1_0" slope="0.000000" acceleration="0.000000"/>
        <vehicle id="f.3" x="-1.600000" y="959.920000" angle="180.000000" type="DEFAULT_VEHTYPE" speed="13.890000" pos="32.880000" lane="A2A1_0" slope="0.000000" acceleration="0.000000"/>
    </timestep>
    <timestep time="21.000">
        <vehicle id="0" x="1.600000" y="269.540000" angle="0.000000" type="DEFAULT_VEHTYPE" speed="13.890000" pos="266.340000" lane="A0A1_0" slope="0.000000" acceleration="0.000000"/>
        <vehicle id="f.0" x="-1.600000" y="696.010000" angle="180.000000" type="DEFAULT_VEHTYPE" speed="13.890000" pos="296.790000" lane="A2A1_0" slope="0.000000" acceleration="0.000000"/>
        <vehicle id="f.1" x="-1.600000" y="779.350000" angle="180.000000" type="DEFAULT_VEHTYPE" speed="13.890000" pos="213.450000" lane="A2A1_0" slope="0.000000" acceleration="0.000000"/>
        <vehicle id="f.2" x="-1.600000" y="862.690000" angle="180.000000" type="DEFAULT_VEHTYPE" speed="13.890000" pos="130.110000" lane="A2A1_0" slope="0.000000" acceleration="0.000000"/>
        <vehicle id="f.3" x="-1.600000" y="946.030000" angle="180.000000" type="DEFAULT_VEHTYPE" speed="13.890000" pos="46.770000" lane="A2A1_0" slope="0.000000" acceleration="0.000000"/>
    </timestep>
    <timestep time="22.000">
        <vehicle id="0" x="1.600000" y="283.430000" angle="0.000000" type="DEFAULT_VEHTYPE" speed="13.890000" pos="280.230000" lane="A0A1_0" slope="0.000000" acceleration="0.000000"/>
        <vehicle id="f.0" x="-1.600000" y="682.120000" angle="180.000000" type="DEFAULT_VEHTYPE" speed="13.890000" pos="310.680000" lane="A2A1_0" slope="0.000000" acceleration="0.000000"/>
        <vehicle id="f.1" x="-1.600000" y="765.460000" angle="180.000000" type="DEFAULT_VEHTYPE" speed="13.890000" pos="227.340000" lane="A2A1_0" slope="0.000000" acceleration="0.000000"/>
        <vehicle id="f.2" x="-1.600000" y="848.800000" angle="180.000000" type="DEFAULT_VEHTYPE" speed="13.890000" pos="144.000000" lane="A2A1_0" slope="0.000000" acceleration="0.000000"/>
        <vehicle id="f.3" x="-1.600000" y="932.140000" angle="180.000000" type="DEFAULT_VEHTYPE" speed="13.890000" pos="60.660000" lane="A2A1_0" slope="0.000000" acceleration="0.000000"/>
    </timestep>
    <timestep time="23.000">
        <vehicle id="0" x="1.600000" y="297.320000" angle="0.000000" type="DEFAULT_VEHTYPE" speed="13.890000" pos="294.120000" lane="A0A1_0" slope="0.000000" acceleration="0.000000"/>
        <vehicle id="f.0" x="-1.600000" y="668.230000" angle="180.000000" type="DEFAULT_VEHTYPE" speed="13.890000" pos="324.570000" lane="A2A1_0" slope="0.000000" acceleration="0.000000"/>
        <vehicle id="f.1" x="-1.600000" y="751.570000" angle="180.000000" type="DEFAULT_VEHTYPE" speed="13.890000" pos="241.230000" lane="A2A1_0" slope="0.000000" acceleration="0.000000"/>
        <vehicle id="f.2" x="-1.600000" y="834.910000" angle="180.000000" type="DEFAULT_VEHTYPE" speed="13.890000" pos="157.890000" lane="A2A1_0" slope="0.000000" acceleration="0.000000"/>
        <vehicle id="f.3" x="-1.600000" y="918.250000" angle="180.000000" type="DEFAULT_VEHTYPE" speed="13.890000" pos="74.550000" lane="A2A1_0" slope="0.000000" acceleration="0.000000"/>
    </timestep>
    <timestep time="24.000">
        <vehicle id="0" x="1.600000" y="311.210000" angle="0.000000" type="DEFAULT_VEHTYPE" speed="13.890000" pos="308.010000" lane="A0A1_0" slope="0.000000" acceleration="0.000000"/>
        <vehicle id="f.0" x="-1.600000" y="654.340000" angle="180.000000" type="DEFAULT_VEHTYPE" speed="13.890000" pos="338.460000" lane="A2A1_0" slope="0.000000" acceleration="0.000000"/>
        <vehicle id="f.1" x="-1.600000" y="737.680000" angle="180.000000" type="DEFAULT_VEHTYPE" speed="13.890000" pos="255.120000" lane="A2A1_0" slope="0.000000" acceleration="0.000000"/>
        <vehicle id="f.2" x="-1.600000" y="821.020000" angle="180.000000" type="DEFAULT_VEHTYPE" speed="13.890000" pos="171.780000" lane="A2A1_0" slope="0.000000" acceleration="0.000000"/>
        <vehicle id="f.3" x="-1.600000" y="904.360000" angle="180.000000" type="DEFAULT_VEHTYPE" speed="13.890000" pos="88.440000" lane="A2A1_0" slope="0.000000" acceleration="0.000000"/>
        <vehicle id="f.4" x="-1.600000" y="987.700000" angle="180.000000" type="DEFAULT_VEHTYPE" speed="13.890000" pos="5.100000" lane="A2A1_0" slope="0.000000" acceleration="0.000000"/>
    </timestep>
    <timestep time="25.000">
        <vehicle id="0" x="1.600000" y="325.100000" angle="0.000000" type="DEFAULT_VEHTYPE" speed="13.890000" pos="321.900000" lane="A0A1_0" slope="0.000000" acceleration="0.000000"/>
        <vehicle id="f.0" x="-1.600000" y="640.450000" angle="180.000000" type="DEFAULT_VEHTYPE" speed="13.890000" pos="352.350000" lane="A2A1_0" slope="0.000000" acceleration="0.000000"/>
        <vehicle id="f.1" x="-1.600000" y="723.790000" angle="180.000000" type="DEFAULT_VEHTYPE" speed="13.890000" pos="269.010000" lane="A2A1_0" slope="0.000000" acceleration="0.000000"/>
        <vehicle id="f.2" x="-1.600000" y="807.130000" angle="180.000000" type="DEFAULT_VEHTYPE" speed="13.890000" pos="185.670000" lane="A2A1_0" slope="0.000000" acceleration="0.000000"/>
        <vehicle id="f.3" x="-1.600000" y="890.470000" angle="180.000000" type="DEFAULT_VEHTYPE" speed="13.890000" pos="102.330000" lane="A2A1_0" slope="0.000000" acceleration="0.000000"/>
        <vehicle id="f.4" x="-1.600000" y="973.810000" angle="180.000000" type="DEFAULT_VEHTYPE" speed="13.890000" pos="18.990000" lane="A2A1_0" slope="0.000000" acceleration="0.000000"/>
    </timestep>
    <timestep time="26.000">
        <vehicle id="0" x="1.600000" y="338.990000" angle="0.000000" type="DEFAULT_VEHTYPE" speed="13.890000" pos="335.790000" lane="A0A1_0" slope="0.000000" acceleration="0.000000"/>
        <vehicle id="f.0" x="-1.600000" y="626.560000" angle="180.000000" type="DEFAULT_VEHTYPE" speed="13.890000" pos="366.240000" lane="A2A1_0" slope="0.000000" acceleration="0.000000"/>
        <vehicle id="f.1" x="-1.600000" y="709.900000" angle="180.000000" type="DEFAULT_VEHTYPE" speed="13.890000" pos="282.900000" lane="A2A1_0" slope="0.000000" acceleration="0.000000"/>
        <vehicle id="f.2" x="-1.600000" y="793.240000" angle="180.000000" type="DEFAULT_VEHTYPE" speed="13.890000" pos="199.560000" lane="A2A1_0" slope="0.000000" acceleration="0.000000"/>
        <vehicle id="f.3" x="-1.600000" y="876.580000" angle="180.000000" type="DEFAULT_VEHTYPE" speed="13.890000" pos="116.220000" lane="A2A1_0" slope="0.000000" acceleration="0.000000"/>
        <vehicle id="f.4" x="-1.600000" y="959.920000" angle="180.000000" type="DEFAULT_VEHTYPE" speed="13.890000" pos="32.880000" lane="A2A1_0" slope="0.000000" acceleration="0.000000"/>
    </timestep>
    <timestep time="27.000">
        <vehicle id="0" x="1.600000" y="352.880000" angle="0.000000" type="DEFAULT_VEHTYPE" speed="13.890000" pos="349.680000" lane="A0A1_0" slope="0.000000" acceleration="0.000000"/>
        <vehicle id="f.0" x="-1.600000" y="612.670000" angle="180.000000" type="DEFAULT_VEHTYPE" speed="13.890000" pos="380.130000" lane="A2A1_0" slope="0.000000" acceleration="0.000000"/>
        <vehicle id="f.1" x="-1.600000" y="696.010000" angle="180.000000" type="DEFAULT_VEHTYPE" speed="13.890000" pos="296.790000" lane="A2A1_0" slope="0.000000" acceleration="0.000000"/>
        <vehicle id="f.2" x="-1.600000" y="779.350000" angle="180.000000" type="DEFAULT_VEHTYPE" speed="13.890000" pos="213.450000" lane="A2A1_0" slope="0.000000" acceleration="0.000000"/>
        <vehicle id="f.3" x="-1.600000" y="862.690000" angle="180.000000" type="DEFAULT_VEHTYPE" speed="13.890000" pos="130.110000" lane="A2A1_0" slope="0.000000" acceleration="0.000000"/>
        <vehicle id="f.4" x="-1.600000" y="946.030000" angle="180.000000" type="DEFAULT_VEHTYPE" speed="13.890000" pos="46.770000" lane="A2A1_0" slope="0.000000" acceleration="0.000000"/>
    </timestep>
    <timestep time="28.000">
        <vehicle id="0" x="1.600000" y="366.770000" angle="0.000000" type="DEFAULT_VEHTYPE" speed="13.890000" pos="363.570000" lane="A0A1_0" slope="0.000000" acceleration="0.000000"/>
        <vehicle id="f.0" x="-1.600000" y="598.780000" angle="180.000000" type="DEFAULT_VEHTYPE" speed="13.890000" pos="394.020000" lane="A2A1_0" slope="0.000000" acceleration="0.000000"/>
        <vehicle id="f.1" x="-1.600000" y="682.120000" angle="180.000000" type="DEFAULT_VEHTYPE" speed="13.890000" pos="310.680000" lane="A2A1_0" slope="0.000000" acceleration="0.000000"/>
        <vehicle id="f.2" x="-1.600000" y="765.460000" angle="180.000000" type="DEFAULT_VEHTYPE" speed="13.890000" pos="227.340000" lane="A2A1_0" slope="0.000000" acceleration="0.000000"/>
        <vehicle id="f.3" x="-1.600000" y="848.800000" angle="180.000000" type="DEFAULT_VEHTYPE" speed="13.890000" pos="144.000000" lane="A2A1_0" slope="0.000000" acceleration="0.000000"/>
        <vehicle id="f.4" x="-1.600000" y="932.140000" angle="180.000000" type="DEFAULT_VEHTYPE" speed="13.890000" pos="60.660000" lane="A2A1_0" slope="0.000000" acceleration="0.000000"/>
    </timestep>
    <timestep time="29.000">
        <vehicle id="0" x="1.600000" y="380.660000" angle="0.000000" type="DEFAULT_VEHTYPE" speed="13.890000" pos="377.460000" lane="A0A1_0" slope="0.000000" acceleration="0.000000"/>
        <vehicle id="f.0" x="-1.600000" y="584.890000" angle="180.000000" type="DEFAULT_VEHTYPE" speed="13.890000" pos="407.910000" lane="A2A1_0" slope="0.000000" acceleration="0.000000"/>
        <vehicle id="f.1" x="-1.600000" y="668.230000" angle="180.000000" type="DEFAULT_VEHTYPE" speed="13.890000" pos="324.570000" lane="A2A1_0" slope="0.000000" acceleration="0.000000"/>
        <vehicle id="f.2" x="-1.600000" y="751.570000" angle="180.000000" type="DEFAULT_VEHTYPE" speed="13.890000" pos="241.230000" lane="A2A1_0" slope="0.000000" acceleration="0.000000"/>
        <vehicle id="f.3" x="-1.600000" y="834.910000" angle="180.000000" type="DEFAULT_VEHTYPE" speed="13.890000" pos="157.890000" lane="A2A1_0" slope="0.000000" acceleration="0.000000"/>
        <vehicle id="f.4" x="-1.600000" y="918.250000" angle="180.000000" type="DEFAULT_VEHTYPE" speed="13.890000" pos="74.550000" lane="A2A1_0" slope="0.000000" acceleration="0.000000"/>
    </timestep>
    <timestep time="30.000">
        <vehicle id="0" x="1.600000" y="394.550000" angle="0.000000" type="DEFAULT_VEHTYPE" speed="13.890000" pos="391.350000" lane="A0A1_0" slope="0.000000" acceleration="0.000000"/>
        <vehicle id="f.0" x="-1.600000" y="571.000000" angle="180.000000" type="DEFAULT_VEHTYPE" speed="13.890000" pos="421.800000" lane="A2A1_0" slope="0.000000" acceleration="0.000000"/>
        <vehicle id="f.1" x="-1.600000" y="654.340000" angle="180.000000" type="DEFAULT_VEHTYPE" speed="13.890000" pos="338.460000" lane="A2A1_0" slope="0.000000" acceleration="0.000000"/>
        <vehicle id="f.2" x="-1.600000" y="737.680000" angle="180.000000" type="DEFAULT_VEHTYPE" speed="13.890000" pos="255.120000" lane="A2A1_0" slope="0.000000" acceleration="0.000000"/>
        <vehicle id="f.3" x="-1.600000" y="821.020000" angle="180.000000" type="DEFAULT_VEHTYPE" speed="13.890000" pos="171.780000" lane="A2A1_0" slope="0.000000" acceleration="0.000000"/>
        <vehicle id="f.4" x="-1.600000" y="904.360000" angle="180.000000" type="DEFAULT_VEHTYPE" speed="13.890000" pos="88.440000" lane="A2A1_0" slope="0.000000" acceleration="0.000000"/>
        <vehicle id="f.5" x="-1.600000" y="987.700000" angle="180.000000" type="DEFAULT_VEHTYPE" speed="13.890000" pos="5.100000" lane="A2A1_0" slope="0.000000" acceleration="0.000000"/>
    </timestep>
    <timestep time="31.000">
        <vehicle id="0" x="1.600000" y="408.440000" angle="0.000000" type="DEFAULT_VEHTYPE" speed="13.890000" pos="405.240000" lane="A0A1_0" slope="0.000000" acceleration="0.000000"/>
        <vehicle id="f.0" x="-1.600000" y="557.110000" angle="180.000000" type="DEFAULT_VEHTYPE" speed="13.890000" pos="435.690000" lane="A2A1_0" slope="0.000000" acceleration="0.000000"/>
        <vehicle id="f.1" x="-1.600000" y="640.450000" angle="180.000000" type="DEFAULT_VEHTYPE" speed="13.890000" pos="352.350000" lane="A2A1_0" slope="0.000000" acceleration="0.000000"/>
        <vehicle id="f.2" x="-1.600000" y="723.790000" angle="180.000000" type="DEFAULT_VEHTYPE" speed="13.890000" pos="269.010000" lane="A2A1_0" slope="0.000000" acceleration="0.000000"/>
        <vehicle id="f.3" x="-1.600000" y="807.130000" angle="180.000000" type="DEFAULT_VEHTYPE" speed="13.890000" pos="185.670000" lane="A2A1_0" slope="0.000000" acceleration="0.000000"/>
        <vehicle id="f.4" x="-1.600000" y="890.470000" angle="180.000000" type="DEFAULT_VEHTYPE" speed="13.890000" pos="102.330000" lane="A2A1_0" slope="0.000000" acceleration="0.000000"/>
        <vehicle id="f.5" x="-1.600000" y="973.810000" angle="180.000000" type="DEFAULT_VEHTYPE" speed="13.890000" pos="18.990000" lane="A2A1_0" slope="0.000000" acceleration="0.000000"/>
    </timestep>
    <timestep time="32.000">
        <vehicle id="0" x="1.600000" y="422.330000" angle="0.000000" type="DEFAULT_VEHTYPE" speed="13.890000" pos="419.130000" lane="A0A1_0" slope="0.000000" acceleration="0.000000"/>
        <vehicle id="f.0" x="-1.600000" y="543.220000" angle="180.000000" type="DEFAULT_VEHTYPE" speed="13.890000" pos="449.580000" lane="A2A1_0" slope="0.000000" acceleration="0.000000"/>
        <vehicle id="f.1" x="-1.600000" y="626.560000" angle="180.000000" type="DEFAULT_VEHTYPE" speed="13.890000" pos="366.240000" lane="A2A1_0" slope="0.000000" acceleration="0.000000"/>
        <vehicle id="f.2" x="-1.600000" y="709.900000" angle="180.000000" type="DEFAULT_VEHTYPE" speed="13.890000" pos="282.900000" lane="A2A1_0" slope="0.000000" acceleration="0.000000"/>
        <vehicle id="f.3" x="-1.600000" y="793.240000" angle="180.000000" type="DEFAULT_VEHTYPE" speed="13.890000" pos="199.560000" lane="A2A1_0" slope="0.000000" acceleration="0.000000"/>
        <vehicle id="f.4" x="-1.600000" y="876.580000" angle="180.000000" type="DEFAULT_VEHTYPE" speed="13.890000" pos="116.220000" lane="A2A1_0" slope="0.000000" acceleration="0.000000"/>
        <vehicle id="f.5" x="-1.600000" y="959.920000" angle="180.000000" type="DEFAULT_VEHTYPE" speed="13.890000" pos="32.880000" lane="A2A1_0" slope="0.000000" acceleration="0.000000"/>
    </timestep>
    <timestep time="33.000">
        <vehicle id="0" x="1.600000" y="436.220000" angle="0.000000" type="DEFAULT_VEHTYPE" speed="13.890000" pos="433.020000" lane="A0A1_0" slope="0.000000" acceleration="0.000000"/>
        <vehicle id="f.0" x="-1.600000" y="529.330000" angle="180.000000" type="DEFAULT_VEHTYPE" speed="13.890000" pos="463.470000" lane="A2A1_0" slope="0.000000" acceleration="0.000000"/>
        <vehicle id="f.1" x="-1.600000" y="612.670000" angle="180.000000" type="DEFAULT_VEHTYPE" speed="13.890000" pos="380.130000" lane="A2A1_0" slope="0.000000" acceleration="0.000000"/>
        <vehicle id="f.2" x="-1.600000" y="696.010000" angle="180.000000" type="DEFAULT_VEHTYPE" speed="13.890000" pos="296.790000" lane="A2A1_0" slope="0.000000" acceleration="0.000000"/>
        <vehicle id="f.3" x="-1.600000" y="779.350000" angle="180.000000" type="DEFAULT_VEHTYPE" speed="13.890000" pos="213.450000" lane="A2A1_0" slope="0.000000" acceleration="0.000000"/>