<?xml version="1.0" encoding="UTF-8"?>

<!-- generated on 2026-07-19 08:21:42 by Eclipse SUMO sumo Version 1.20.0
<configuration xmlns:xsi="http://www.w3.org/2001/XMLSchema-instance" xsi:noNamespaceSchemaLocation="http://sumo.dlr.de/xsd/sumoConfiguration.xsd">

    <input>
        <net-file value="/home/user/SumoSharp/scenarios/74-reroute-routing-section/net.net.xml"/>
        <route-files value="/home/user/SumoSharp/scenarios/74-reroute-routing-section/rou.rou.xml"/>
    </input>

    <output>
        <precision value="6"/>
        <fcd-output value="/home/user/SumoSharp/scenarios/74-reroute-routing-section/golden.fcd.xml"/>
        <fcd-output.acceleration value="true"/>
        <tripinfo-output value="/home/user/SumoSharp/scenarios/74-reroute-routing-section/golden.tripinfo.xml"/>
        <save-state.times value="1"/>
        <save-state.files value="/home/user/SumoSharp/scenarios/74-reroute-routing-section/golden.state.xml"/>
    </output>

    <time>
        <begin value="0"/>
        <end value="120"/>
        <step-length value="1"/>
    </time>

    <processing>
        <step-method.ballistic value="false"/>
        <collision.action value="none"/>
        <time-to-teleport value="-1"/>
        <default.action-step-length value="1"/>
        <default.speeddev value="0"/>
    </processing>

    <routing>
        <routing-algorithm value="astar"/>
        <device.rerouting.probability value="1.0"/>
        <device.rerouting.period value="8"/>
        <device.rerouting.adaptation-steps value="3"/>
    </routing>

    <report>
        <no-step-log value="true"/>
    </report>

    <random_number>
        <seed value="42"/>
    </random_number>

</configuration>
-->

<fcd-export xmlns:xsi="http://www.w3.org/2001/XMLSchema-instance" xsi:noNamespaceSchemaLocation="http://sumo.dlr.de/xsd/fcd_file.xsd">
    <timestep time="0.000">
        <vehicle id="blocker" x="196.070000" y="103.400000" angle="90.000000" type="car" speed="0.000000" pos="0.000000" lane="e_short_0" slope="0.000000" acceleration="0.000000"/>
        <vehicle id="rerouted" x="0.000000" y="103.400000" angle="90.000000" type="car" speed="0.000000" pos="0.000000" lane="e_src1_0" slope="0.000000" acceleration="0.000000"/>
    </timestep>
    <timestep time="1.000">
        <vehicle id="blocker" x="201.059573" y="103.400000" angle="90.000000" type="car" speed="2.600000" pos="2.600000" lane="e_short_0" slope="0.000000" acceleration="2.600000"/>
        <vehicle id="rerouted" x="2.600000" y="103.400000" angle="90.000000" type="car" speed="2.600000" pos="2.600000" lane="e_src1_0" slope="0.000000" acceleration="2.600000"/>
    </timestep>
    <timestep time="2.000">
        <vehicle id="blocker" x="211.038720" y="103.400000" angle="90.000000" type="car" speed="5.200000" pos="7.800000" lane="e_short_0" slope="0.000000" acceleration="2.600000"/>
        <vehicle id="rerouted" x="7.800000" y="103.400000" angle="90.000000" type="car" speed="5.200000" pos="7.800000" lane="e_src1_0" slope="0.000000" acceleration="2.600000"/>
    </timestep>
    <timestep time="3.000">
        <vehicle id="blocker" x="226.007440" y="103.400000" angle="90.000000" type="car" speed="7.800000" pos="15.600000" lane="e_short_0" slope="0.000000" acceleration="2.600000"/>
        <vehicle id="rerouted" x="15.600000" y="103.400000" angle="90.000000" type="car" speed="7.800000" pos="15.600000" lane="e_src1_0" slope="0.000000" acceleration="2.600000"/>
    </timestep>
    <timestep time="4.000">
        <vehicle id="blocker" x="239.344953" y="103.400000" angle="90.000000" type="car" speed="6.950000" pos="22.550000" lane="e_short_0" slope="0.000000" acceleration="-0.850000"/>
        <vehicle id="rerouted" x="26.000000" y="103.400000" angle="90.000000" type="car" speed="10.400000" pos="26.000000" lane="e_src1_0" slope="0.000000" acceleration="2.600000"/>
    </timestep>
    <timestep time="5.000">
        <vehicle id="blocker" x="244.046667" y="103.400000" angle="90.000000" type="car" speed="2.450000" pos="25.000000" lane="e_short_0" slope="0.000000" acceleration="-4.500000"/>
        <vehicle id="rerouted" x="39.000000" y="103.400000" angle="90.000000" type="car" speed="13.000000" pos="39.000000" lane="e_src1_0" slope="0.000000" acceleration="2.600000"/>
    </timestep>
    <timestep time="6.000">
        <vehicle id="blocker" x="244.046667" y="103.400000" angle="90.000000" type="car" speed="0.000000" pos="25.000000" lane="e_short_0" slope="0.000000" acceleration="-2.450000"/>
        <vehicle id="rerouted" x="52.890000" y="103.400000" angle="90.000000" type="car" speed="13.890000" pos="52.890000" lane="e_src1_0" slope="0.000000" acceleration="0.890000"/>
    </timestep>
    <timestep time="7.000">
        <vehicle id="blocker" x="244.046667" y="103.400000" angle="90.000000" type="car" speed="0.000000" pos="25.000000" lane="e_short_0" slope="0.000000" acceleration="0.000000"/>
        <vehicle id="rerouted" x="66.680000" y="103.400000" angle="90.000000" type="car" speed="13.890000" pos="6.680000" lane="e_src2_0" slope="0.000000" acceleration="0.000000"/>
    </timestep>
    <timestep time="8.000">
        <vehicle id="blocker" x="244.046667" y="103.400000" angle="90.000000" type="car" speed="0.000000" pos="25.000000" lane="e_short_0" slope="0.000000" acceleration="0.000000"/>
        <vehicle id="rerouted" x="80.570000" y="103.400000" angle="90.000000" type="car" speed="13.890000" pos="20.570000" lane="e_src2_0" slope="0.000000" acceleration="0.000000"/>
    </timestep>
    <timestep time="9.000">
        <vehicle id="blocker" x="244.046667" y="103.400000" angle="90.000000" type="car" speed="0.000000" pos="25.000000" lane="e_short_0" slope="0.000000" acceleration="0.000000"/>
        <vehicle id="rerouted" x="94.460000" y="103.400000" angle="90.000000" type="car" speed="13.890000" pos="34.460000" lane="e_src2_0" slope="0.000000" acceleration="0.000000"/>
    </timestep>
    <timestep time="10.000">
        <vehicle id="blocker" x="244.046667" y="103.400000" angle="90.000000" type="car" speed="0.000000" pos="25.000000" lane="e_short_0" slope="0.000000" acceleration="0.000000"/>
        <vehicle id="rerouted" x="108.350000" y="103.400000" angle="90.000000" type="car" speed="13.890000" pos="48.350000" lane="e_src2_0" slope="0.000000" acceleration="0.000000"/>
    </timestep>
    <timestep time="11.000">
        <vehicle id="blocker" x="244.046667" y="103.400000" angle="90.000000" type="car" speed="0.000000" pos="25.000000" lane="e_short_0" slope="0.000000" acceleration="0.000000"/>
        <vehicle id="rerouted" x="122.240000" y="103.400000" angle="90.000000" type="car" speed="13.890000" pos="62.240000" lane="e_src2_0" slope="0.000000" acceleration="0.000000"/>
    </timestep>
    <timestep time="12.000">
        <vehicle id="blocker" x="244.046667" y="103.400000" angle="90.000000" type="car" speed="0.000000" pos="25.000000" lane="e_short_0" slope="0.000000" acceleration="0.000000"/>
        <vehicle id="rerouted" x="136.130000" y="103.400000" angle="90.000000" type="car" speed="13.890000" pos="76.130000" lane="e_src2_0" slope="0.000000" acceleration="0.000000"/>
    </timestep>
    <timestep time="13.000">
        <vehicle id="blocker" x="244.046667" y="103.400000" angle="90.000000" type="car" speed="0.000000" pos="25.000000" lane="e_short_0" slope="0.000000" acceleration="0.000000"/>
        <vehicle id="rerouted" x="150.020000" y="103.400000" angle="90.000000" type="car" speed="13.890000" pos="90.020000" lane="e_src2_0" slope="0.000000" acceleration="0.000000"/>
    </timestep>
    <timestep time="14.000">
        <vehicle id="blocker" x="244.046667" y="103.400000" angle="90.000000" type="car" speed="0.000000" pos="25.000000" lane="e_short_0" slope="0.000000" acceleration="0.000000"/>
        <vehicle id="rerouted" x="163.910000" y="103.400000" angle="90.000000" type="car" speed="13.890000" pos="103.910000" lane="e_src2_0" slope="0.000000" acceleration="0.000000"/>
    </timestep>
    <timestep time="15.000">
        <vehicle id="blocker" x="244.046667" y="103.400000" angle="90.000000" type="car" speed="0.000000" pos="25.000000" lane="e_short_0" slope="0.000000" acceleration="0.000000"/>
        <vehicle id="rerouted" x="177.800000" y="103.400000" angle="90.000000" type="car" speed="13.890000" pos="117.800000" lane="e_src2_0" slope="0.000000" acceleration="0.000000"/>
    </timestep>
    <timestep time="16.000">
        <vehicle id="blocker" x="244.046667" y="103.400000" angle="90.000000" type="car" speed="0.000000" pos="25.000000" lane="e_short_0" slope="0.000000" acceleration="0.000000"/>
        <vehicle id="rerouted" x="189.589037" y="103.184050" angle="92.478499" type="car" speed="11.800000" pos="2.110000" lane=":J_0_0" slope="0.000000" acceleration="-2.090000"/>
    </timestep>
    <timestep time="17.000">
        <vehicle id="blocker" x="244.046667" y="103.400000" angle="90.000000" type="car" speed="0.000000" pos="25.000000" lane="e_short_0" slope="0.000000" acceleration="0.000000"/>
        <vehicle id="rerouted" x="199.262854" y="96.562002" angle="124.992020" type="car" speed="11.800000" pos="5.350000" lane="e_det1_0" slope="0.000000" acceleration="0.000000"/>
    </timestep>
    <timestep time="18.000">
        <vehicle id="blocker" x="244.046667" y="103.400000" angle="90.000000" type="car" speed="0.000000" pos="25.000000" lane="e_short_0" slope="0.000000" acceleration="0.000000"/>
        <vehicle id="rerouted" x="210.641891" y="88.596677" angle="124.992020" type="car" speed="13.890000" pos="19.240000" lane="e_det1_0" slope="0.000000" acceleration="2.090000"/>
    </timestep>
    <timestep time="19.000">
        <vehicle id="blocker" x="244.046667" y="103.400000" angle="90.000000" type="car" speed="0.000000" pos="25.000000" lane="e_short_0" slope="0.000000" acceleration="0.000000"/>
        <vehicle id="rerouted" x="222.020927" y="80.631351" angle="124.992020" type="car" speed="13.890000" pos="33.130000" lane="e_det1_0" slope="0.000000" acceleration="0.000000"/>
    </timestep>
    <timestep time="20.000">
        <vehicle id="blocker" x="244.046667" y="103.400000" angle="90.000000" type="car" speed="0.000000" pos="25.000000" lane="e_short_0" slope="0.000000" acceleration="0.000000"/>
        <vehicle id="rerouted" x="233.399964" y="72.666025" angle="124.992020" type="car" speed="13.890000" pos="47.020000" lane="e_det1_0" slope="0.000000" acceleration="0.000000"/>
    </timestep>
    <timestep time="21.000">
        <vehicle id="blocker" x="244.046667" y="103.400000" angle="90.000000" type="car" speed="0.000000" pos="25.000000" lane="e_short_0" slope="0.000000" acceleration="0.000000"/>
        <vehicle id="rerouted" x="244.779000" y="64.700700" angle="124.992020" type="car" speed="13.890000" pos="60.910000" lane="e_det1_0" slope="0.000000" acceleration="0.000000"/>
    </timestep>
    <timestep time="22.000">
        <vehicle id="blocker" x="244.046667" y="103.400000" angle="90.000000" type="car" speed="0.000000" pos="25.000000" lane="e_short_0" slope="0.000000" acceleration="0.000000"/>
        <vehicle id="rerouted" x="256.158037" y="56.735374" angle="124.992020" type="car" speed="13.890000" pos="74.800000" lane="e_det1_0" slope="0.000000" acceleration="0.000000"/>
    </timestep>
    <timestep time="23.000">
        <vehicle id="blocker" x="244.046667" y="103.400000" angle="90.000000" type="car" speed="0.000000" pos="25.000000" lane="e_short_0" slope="0.000000" acceleration="0.000000"/>
        <vehicle id="rerouted" x="267.537073" y="48.770049" angle="124.992020" type="car" speed="13.890000" pos="88.690000" lane="e_det1_0" slope="0.000000" acceleration="0.000000"/>
    </timestep>
    <timestep time="24.000">
        <vehicle id="blocker" x="244.046667" y="103.400000" angle="90.000000" type="car" speed="0.000000" pos="25.000000" lane="e_short_0" slope="0.000000" acceleration="0.000000"/>
        <vehicle id="rerouted" x="278.916110" y="40.804723" angle="124.992020" type="car" speed="13.890000" pos="102.580000" lane="e_det1_0" slope="0.000000" acceleration="0.000000"/>
    </timestep>
    <timestep time="25.000">
        <vehicle id="blocker" x="244.046667" y="103.400000" angle="90.000000" type="car" speed="0.000000" pos="25.000000" lane="e_short_0" slope="0.000000" acceleration="0.000000"/>
        <vehicle id="rerouted" x="290.295146" y="32.839398" angle="124.992020" type="car" speed="13.890000" pos="116.470000" lane="e_det1_0" slope="0.000000" acceleration="0.000000"/>
    </timestep>
    <timestep time="26.000">
        <vehicle id="blocker" x="244.046667" y="103.400000" angle="90.000000" type="car" speed="0.000000" pos="25.000000" lane="e_short_0" slope="0.000000" acceleration="0.000000"/>
        <vehicle id="rerouted" x="301.674182" y="24.874072" angle="124.992020" type="car" speed="13.890000" pos="130.360000" lane="e_det1_0" slope="0.000000" acceleration="0.000000"/>
    </timestep>
    <timestep time="27.000">
        <vehicle id="blocker" x="244.046667" y="103.400000" angle="90.000000" type="car" speed="0.000000" pos="25.000000" lane="e_short_0" slope="0.000000" acceleration="0.000000"/>
        <vehicle id="rerouted" x="313.053219" y="16.908747" angle="124.992020" type="car" speed="13.890000" pos="144.250000" lane="e_det1_0" slope="0.000000" acceleration="0.000000"/>
    </timestep>
    <timestep time="28.000">
        <vehicle id="blocker" x="244.046667" y="103.400000" angle="90.000000" type="car" speed="0.000000" pos="25.000000" lane="e_short_0" slope="0.000000" acceleration="0.000000"/>
        <vehicle id="rerouted" x="324.432255" y="8.943421" angle="124.992020" type="car" speed="13.890000" pos="158.140000" lane="e_det1_0" slope="0.000000" acceleration="0.000000"/>
    </timestep>
    <timestep time="29.000">
        <vehicle id="blocker" x="244.046667" y="103.400000" angle="90.000000" type="car" speed="0.000000" pos="25.000000" lane="e_short_0" slope="0.000000" acceleration="0.000000"/>
        <vehicle id="rerouted" x="333.599384" y="2.526431" angle="124.992020" type="car" speed="11.190000" pos="169.330000" lane="e_det1_0" slope="0.000000" acceleration="-2.700000"/>
    </timestep>
    <timestep time="30.000">
        <vehicle id="blocker" x="244.046667" y="103.400000" angle="90.000000" type="car" speed="0.000000" pos="25.000000" lane="e_short_0" slope="0.000000" acceleration="0.000000"/>
        <vehicle id="rerouted" x="339.080000" y="-1.310000" angle="124.992020" type="car" speed="6.690000" pos="176.020000" lane="e_det1_0" slope="0.000000" acceleration="-4.500000"/>
    </timestep>
    <timestep time="31.000">
        <vehicle id="blocker" x="244.046667" y="103.400000" angle="90.000000" type="car" speed="0.000000" pos="25.000000" lane="e_short_0" slope="0.000000" acceleration="0.000000"/>
        <vehicle id="rerouted" x="342.550258" y="-0.168819" angle="82.816215" type="car" speed="3.960000" pos="1.990000" lane="e_det2_0" slope="0.000000" acceleration="-2.730000"/>
    </timestep>
    <timestep time="32.000">
        <vehicle id="blocker" x="244.046667" y="103.400000" angle="90.000000" type="car" speed="0.000000" pos="25.000000" lane="e_short_0" slope="0.000000" acceleration="0.000000"/>
        <vehicle id="rerouted" x="347.924375" y="3.593062" angle="55.007980" type="car" speed="6.560000" pos="8.550000" lane="e_det2_0" slope="0.000000" acceleration="2.600000"/>
    </timestep>
    <timestep time="33.000">
        <vehicle id="blocker" x="244.046667" y="103.400000" angle="90.000000" type="car" speed="0.000000" pos="25.000000" lane="e_short_0" slope="0.000000" acceleration="0.000000"/>
        <vehicle id="rerouted" x="355.428476" y="8.845933" angle="55.007980" type="car" speed="9.160000" pos="17.710000" lane="e_det2_0" slope="0.000000" acceleration="2.600000"/>
    </timestep>
    <timestep time="34.000">
        <vehicle id="blocker" x="244.046667" y="103.400000" angle="90.000000" type="car" speed="0.000000" pos="25.000000" lane="e_short_0" slope="0.000000" acceleration="0.000000"/>
        <vehicle id="rerouted" x="365.062563" y="15.589794" angle="55.007980" type="car" speed="11.760000" pos="29.470000" lane="e_det2_0" slope="0.000000" acceleration="2.600000"/>
    </timestep>
    <timestep time="35.000">
        <vehicle id="blocker" x="244.046667" y="103.400000" angle="90.000000" type="car" speed="0.000000" pos="25.000000" lane="e_short_0" slope="0.000000" acceleration="0.000000"/>
        <vehicle id="rerouted" x="376.441600" y="23.555120" angle="55.007980" type="car" speed="13.890000" pos="43.360000" lane="e_det2_0" slope="0.000000" acceleration="2.130000"/>
    </timestep>
    <timestep time="36.000">
        <vehicle id="blocker" x="244.046667" y="103.400000" angle="90.000000" type="car" speed="0.000000" pos="25.000000" lane="e_short_0" slope="0.000000" acceleration="0.000000"/>
        <vehicle id="rerouted" x="387.820636" y="31.520445" angle="55.007980" type="car" speed="13.890000" pos="57.250000" lane="e_det2_0" slope="0.000000" acceleration="0.000000"/>
    </timestep>
    <timestep time="37.000">
        <vehicle id="blocker" x="244.046667" y="103.400000" angle="90.000000" type="car" speed="0.000000" pos="25.000000" lane="e_short_0" slope="0.000000" acceleration="0.000000"/>
        <vehicle id="rerouted" x="399.199673" y="39.485771" angle="55.007980" type="car" speed="13.890000" pos="71.140000" lane="e_det2_0" slope="0.000000" acceleration="0.000000"/>
    </timestep>
    <timestep time="38.000">
        <vehicle id="blocker" x="244.046667" y="103.400000" angle="90.000000" type="car" speed="0.000000" pos="25.000000" lane="e_short_0" slope="0.000000" acceleration="0.000000"/>
        <vehicle id="rerouted" x="410.578709" y="47.451096" angle="55.007980" type="car" speed="13.890000" pos="85.030000" lane="e_det2_0" slope="0.000000" acceleration="0.000000"/>
    </timestep>
    <timestep time="39.000">
        <vehicle id="blocker" x="244.046667" y="103.400000" angle="90.000000" type="car" speed="0.000000" pos="25.000000" lane="e_short_0" slope="0.000000" acceleration="0.000000"/>
        <vehicle id="rerouted" x="421.957746" y="55.416422" angle="55.007980" type="car" speed="13.890000" pos="98.920000" lane="e_det2_0" slope="0.000000" acceleration="0.000000"/>
    </timestep>
    <timestep time="40.000">
        <vehicle id="blocker" x="244.046667" y="103.400000" angle="90.000000" type="car" speed="0.000000" pos="25.000000" lane="e_short_0" slope="0.000000" acceleration="0.000000"/>
        <vehicle id="rerouted" x="433.336782" y="63.381748" angle="55.007980" type="car" speed="13.890000" pos="112.810000" lane="e_det2_0" slope="0.000000" acceleration="0.000000"/>
    </timestep>
    <timestep time="41.000">
        <vehicle id="blocker" x="244.046667" y="103.400000" angle="90.000000" type="car" speed="0.000000" pos="25.000000" lane="e_short_0" slope="0.000000" acceleration="0.000000"/>
        <vehicle id="rerouted" x="444.715819" y="71.347073" angle="55.007980" type="car" speed="13.890000" pos="126.700000" lane="e_det2_0" slope="0.000000" acceleration="0.000000"/>
    </timestep>
    <timestep time="42.000">
        <vehicle id="blocker" x="244.046667" y="103.400000" angle="90.000000" type="car" speed="0.000000" pos="25.000000" lane="e_short_0" slope="0.000000" acceleration="0.000000"/>
        <vehicle id="rerouted" x="456.094855" y="79.312399" angle="55.007980" type="car" speed="13.890000" pos="140.590000" lane="e_det2_0" slope="0.000000" acceleration="0.000000"/>
    </timestep>
    <timestep time="43.000">
        <vehicle id="blocker" x="244.046667" y="103.400000" angle="90.000000" type="car" speed="0.000000" pos="25.000000" lane="e_short_0" slope="0.000000" acceleration="0.000000"/>
        <vehicle id="rerouted" x="467.473892" y="87.277724" angle="55.007980" type="car" speed="13.890000" pos="154.480000" lane="e_det2_0" slope="0.000000" acceleration="0.000000"/>
    </timestep>
    <timestep time="44.000">
        <vehicle id="blocker" x="244.046667" y="103.400000" angle="90.000000" type="car" speed="0.000000" pos="25.000000" lane="e_short_0" slope="0.000000" acceleration="0.000000"/>
        <vehicle id="rerouted" x="478.852928" y="95.243050" angle="55.007980" type="car" speed="13.890000" pos="168.370000" lane="e_det2_0" slope="0.000000" acceleration="0.000000"/>
    </timestep>
    <timestep time="45.000">
        <vehicle id="blocker" x="244.046667" y="103.400000" angle="90.000000" type="car" speed="0.000000" pos="25.000000" lane="e_short_0" slope="0.000000" acceleration="0.000000"/>
        <vehicle id="rerouted" x="488.339076" y="102.248866" angle="51.573201" type="car" speed="11.800000" pos="4.150000" lane=":M_0_0" slope="0.000000" acceleration="-2.090000"/>
    </timestep>
    <timestep time="46.000">
        <vehicle id="blocker" x="244.046667" y="103.400000" angle="90.000000" type="car" speed="0.000000" pos="25.000000" lane="e_short_0" slope="0.000000" acceleration="0.000000"/>
        <vehicle id="rerouted" x="499.900000" y="103.400000" angle="90.000000" type="car" speed="11.800000" pos="7.390000" lane="e_dest_0" slope="0.000000" acceleration="0.000000"/>
    </timestep>
    <timestep time="47.000">
        <vehicle id="blocker" x="244.046667" y="103.400000" angle="90.000000" type="car" speed="0.000000" pos="25.000000" lane="e_short_0" slope="0.000000" acceleration="0.000000"/>
        <vehicle id="rerouted" x="513.790000" y="103.400000" angle="90.000000" type="car" speed="13.890000" pos="21.280000" lane="e_dest_0" slope="0.000000" acceleration="2.090000"/>
    </timestep>
    <timestep time="48.000">
        <vehicle id="blocker" x="244.046667" y="103.400000" angle="90.000000" type="car" speed="0.000000" pos="25.000000" lane="e_short_0" slope="0.000000" acceleration="0.000000"/>
        <vehicle id="rerouted" x="527.680000" y="103.400000" angle="90.000000" type="car" speed="13.890000" pos="35.170000" lane="e_dest_0" slope="0.000000" acceleration="0.000000"/>
    </timestep>
    <timestep time="49.000">
        <vehicle id="blocker" x="244.046667" y="103.400000" angle="90.000000" type="car" speed="0.000000" pos="25.000000" lane="e_short_0" slope="0.000000" acceleration="0.000000"/>
        <vehicle id="rerouted" x="541.570000" y="103.400000" angle="90.000000" type="car" speed="13.890000" pos="49.060000" lane="e_dest_0" slope="0.000000" acceleration="0.000000"/>
    </timestep>
    <timestep time="50.000">
        <vehicle id="blocker" x="244.046667" y="103.400000" angle="90.000000" type="car" speed="0.000000" pos="25.000000" lane="e_short_0" slope="0.000000" acceleration="0.000000"/>
        <vehicle id="rerouted" x="555.460000" y="103.400000" angle="90.000000" type="car" speed="13.890000" pos="62.950000" lane="e_dest_0" slope="0.000000" acceleration="0.000000"/>
    </timestep>
    <timestep time="51.000">
        <vehicle id="blocker" x="244.046667" y="103.400000" angle="90.000000" type="car" speed="0.000000" pos="25.000000" lane="e_short_0" slope="0.000000" acceleration="0.000000"/>
        <vehicle id="rerouted" x="569.350000" y="103.400000" angle="90.000000" type="car" speed="13.890000" pos="76.840000" lane="e_dest_0" slope="0.000000" acceleration="0.000000"/>
    </timestep>
    <timestep time="52.000">
        <vehicle id="blocker" x="244.046667" y="103.400000" angle="90.000000" type="car" speed="0.000000" pos="25.000000" lane="e_short_0" slope="0.000000" acceleration="0.000000"/>
        <vehicle id="rerouted" x="583.240000" y="103.400000" angle="90.000000" type="car" speed="13.890000" pos="90.730000" lane="e_dest_0" slope="0.000000" acceleration="0.000000"/>
    </timestep>
    <timestep time="53.000">
        <vehicle id="blocker" x="244.046667" y="103.400000" angle="90.000000" type="car" speed="0.000000" pos="25.000000" lane="e_short_0" slope="0.000000" acceleration="0.000000"/>
        <vehicle id="rerouted" x="597.130000" y="103.400000" angle="90.000000" type="car" speed="13.890000" pos="104.620000" lane="e_dest_0" slope="0.000000" acceleration="0.000000"/>
    </timestep>
    <timestep time="54.000">
        <vehicle id="blocker" x="244.046667" y="103.400000" angle="90.000000" type="car" speed="0.000000" pos="25.000000" lane="e_short_0" slope="0.000000" acceleration="0.000000"/>
        <vehicle id="rerouted" x="611.020000" y="103.400000" angle="90.000000" type="car" speed="13.890000" pos="118.510000" lane="e_dest_0" slope="0.000000" acceleration="0.000000"/>
    </timestep>
    <timestep time="55.000">
        <vehicle id="blocker" x="244.046667" y="103.400000" angle="90.000000" type="car" speed="0.000000" pos="25.000000" lane="e_short_0" slope="0.000000" acceleration="0.000000"/>
        <vehicle id="rerouted" x="624.910000" y="103.400000" angle="90.000000" type="car" speed="13.890000" pos="132.400000" lane="e_dest_0" slope="0.000000" acceleration="0.000000"/>
    </timestep>
    <timestep time="56.000">
        <vehicle id="blocker" x="244.046667" y="103.400000" angle="90.000000" type="car" speed="0.000000" pos="25.000000" lane="e_short_0" slope="0.000000" acceleration="0.000000"/>
        <vehicle id="rerouted" x="638.800000" y="103.400000" angle="90.000000" type="car" speed="13.890000" pos="146.290000" lane="e_dest_0" slope="0.000000" acceleration="0.000000"/>
    </timestep>
    <timestep time="57.000">
        <vehicle id="blocker" x="244.046667" y="103.400000" angle="90.000000" type="car" speed="0.000000" pos="25.000000" lane="e_short_0" slope="0.000000" acceleration="0.000000"/>
        <vehicle id="rerouted" x="652.690000" y="103.400000" angle="90.000000" type="car" speed="13.890000" pos="160.180000" lane="e_dest_0" slope="0.000000" acceleration="0.000000"/>
    </timestep>
    <timestep time="58.000">
        <vehicle id="blocker" x="244.046667" y="103.400000" angle="90.000000" type="car" speed="0.000000" pos="25.000000" lane="e_short_0" slope="0.000000" acceleration="0.000000"/>
        <vehicle id="rerouted" x="666.580000" y="103.400000" angle="90.000000" type="car" speed="13.890000" pos="174.070000" lane="e_dest_0" slope="0.000000" acceleration="0.000000"/>
    </timestep>
    <timestep time="59.000">
        <vehicle id="blocker" x="244.046667" y="103.400000" angle="90.000000" type="car" speed="0.000000" pos="25.000000" lane="e_short_0" slope="0.000000" acceleration="0.000000"/>
        <vehicle id="rerouted" x="680.470000" y="103.400000" angle="90.000000" type="car" speed="13.890000" pos="187.960000" lane="e_dest_0" slope="0.000000" acceleration="0.000000"/>
    </timestep>
    <timestep time="60.000">
        <vehicle id="blocker" x="244.046667" y="103.400000" angle="90.000000" type="car" speed="0.000000" pos="25.000000" lane="e_short_0" slope="0.000000" acceleration="0.000000"/>
    </timestep>
    <timestep time="61.000">
        <vehicle id="blocker" x="244.046667" y="103.400000" angle="90.000000" type="car" speed="0.000000" pos="25.000000" lane="e_short_0" slope="0.000000" acceleration="0.000000"/>
    </timestep>
    <timestep time="62.000">
        <vehicle id="blocker" x="244.046667" y="103.400000" angle="90.000000" type="car" speed="0.000000" pos="25.000000" lane="e_short_0" slope="0.000000" acceleration="0.000000"/>
    </timestep>
    <timestep time="63.000">
        <vehicle id="blocker" x="244.046667" y="103.400000" angle="90.000000" type="car" speed="0.000000" pos="25.000000" lane="e_short_0" slope="0.000000" acceleration="0.000000"/>
    </timestep>
    <timestep time="64.000">
        <vehicle id="blocker" x="244.046667" y="103.400000" angle="90.000000" type="car" speed="0.000000" pos="25.000000" lane="e_short_0" slope="0.000000" acceleration="0.000000"/>
    </timestep>
    <timestep time="65.000">
        <vehicle id="blocker" x="244.046667" y="103.400000" angle="90.000000" type="car" speed="0.000000" pos="25.000000" lane="e_short_0" slope="0.000000" acceleration="0.000000"/>
    </timestep>
    <timestep time="66.000">
        <vehicle id="blocker" x="244.046667" y="103.400000" angle="90.000000" type="car" speed="0.000000" pos="25.000000" lane="e_short_0" slope="0.000000" acceleration="0.000000"/>
    </timestep>
    <timestep time="67.000">
        <vehicle id="blocker" x="244.046667" y="103.400000" angle="90.000000" type="car" speed="0.000000" pos="25.000000" lane="e_short_0" slope="0.000000" acceleration="0.000000"/>
    </timestep>
    <timestep time="68.000">
        <vehicle id="blocker" x="244.046667" y="103.400000" angle="90.000000" type="car" speed="0.000000" pos="25.000000" lane="e_short_0" slope="0.000000" acceleration="0.000000"/>
    </timestep>
    <timestep time="69.000">
        <vehicle id="blocker" x="244.046667" y="103.400000" angle="90.000000" type="car" speed="0.000000" pos="25.000000" lane="e_short_0" slope="0.000000" acceleration="0.000000"/>
    </timestep>
    <timestep time="70.000">
        <vehicle id="blocker" x="244.046667" y="103.400000" angle="90.000000" type="car" speed="0.000000" pos="25.000000" lane="e_short_0" slope="0.000000" acceleration="0.000000"/>
    </timestep>
    <timestep time="71.000">
        <vehicle id="blocker" x="244.046667" y="103.400000" angle="90.000000" type="car" speed="0.000000" pos="25.000000" lane="e_short_0" slope="0.000000" acceleration="0.000000"/>
    </timestep>
    <timestep time="72.000">
        <vehicle id="blocker" x="244.046667" y="103.400000" angle="90.000000" type="car" speed="0.000000" pos="25.000000" lane="e_short_0" slope="0.000000" acceleration="0.000000"/>
    </timestep>
    <timestep time="73.000">
        <vehicle id="blocker" x="244.046667" y="103.400000" angle="90.000000" type="car" speed="0.000000" pos="25.000000" lane="e_short_0" slope="0.000000" acceleration="0.000000"/>
    </timestep>
    <timestep time="74.000">
        <vehicle id="blocker" x="244.046667" y="103.400000" angle="90.000000" type="car" speed="0.000000" pos="25.000000" lane="e_short_0" slope="0.000000" acceleration="0.000000"/>
    </timestep>
    <timestep time="75.000">