<?xml version="1.0" encoding="UTF-8"?>

<!-- generated on 2026-07-12 11:17:51 by Eclipse SUMO sumo Version 1.20.0
<configuration xmlns:xsi="http://www.w3.org/2001/XMLSchema-instance" xsi:noNamespaceSchemaLocation="http://sumo.dlr.de/xsd/sumoConfiguration.xsd">

    <input>
        <net-file value="net.net.xml"/>
        <route-files value="rou.rou.xml"/>
    </input>

    <output>
        <precision value="6"/>
        <fcd-output value="golden.fcd.xml"/>
        <fcd-output.attributes value="x,y,angle,speed,pos,lane,posLat,acceleration"/>
        <save-state.times value="1"/>
        <save-state.files value="golden.state.xml"/>
    </output>

    <time>
        <begin value="0"/>
        <end value="30"/>
        <step-length value="1"/>
    </time>

    <processing>
        <step-method.ballistic value="false"/>
        <lateral-resolution value="0.8"/>
        <collision.action value="none"/>
        <time-to-teleport value="-1"/>
        <default.action-step-length value="1"/>
        <default.speeddev value="0"/>
    </processing>

    <report>
        <no-step-log value="true"/>
    </report>

    <random_number>
        <seed value="42"/>
    </random_number>

</configuration>
-->

<fcd-export xmlns:xsi="http://www.w3.org/2001/XMLSchema-instance" xsi:noNamespaceSchemaLocation="http://sumo.dlr.de/xsd/fcd_file.xsd">
    <timestep time="0.000">
        <vehicle id="v0" x="0.000000" y="-2.400000" angle="90.000000" speed="0.000000" pos="0.000000" lane="e0_0" acceleration="0.000000" posLat="0.000000"/>
    </timestep>
    <timestep time="1.000">
        <vehicle id="v0" x="2.600000" y="-3.400000" angle="101.536959" speed="2.600000" pos="2.600000" lane="e0_0" acceleration="2.600000" posLat="-1.000000"/>
    </timestep>
    <timestep time="2.000">
        <vehicle id="v0" x="7.800000" y="-3.899500" angle="95.486866" speed="5.200000" pos="7.800000" lane="e0_0" acceleration="2.600000" posLat="-1.499500"/>
    </timestep>
    <timestep time="3.000">
        <vehicle id="v0" x="15.600000" y="-3.899500" angle="90.000000" speed="7.800000" pos="15.600000" lane="e0_0" acceleration="2.600000" posLat="-1.499500"/>
    </timestep>
    <timestep time="4.000">
        <vehicle id="v0" x="26.000000" y="-3.899500" angle="90.000000" speed="10.400000" pos="26.000000" lane="e0_0" acceleration="2.600000" posLat="-1.499500"/>
    </timestep>
    <timestep time="5.000">
        <vehicle id="v0" x="39.000000" y="-3.899500" angle="90.000000" speed="13.000000" pos="39.000000" lane="e0_0" acceleration="2.600000" posLat="-1.499500"/>
    </timestep>
    <timestep time="6.000">
        <vehicle id="v0" x="52.890000" y="-3.899500" angle="90.000000" speed="13.890000" pos="52.890000" lane="e0_0" acceleration="0.890000" posLat="-1.499500"/>
    </timestep>
    <timestep time="7.000">
        <vehicle id="v0" x="66.780000" y="-3.899500" angle="90.000000" speed="13.890000" pos="66.780000" lane="e0_0" acceleration="0.000000" posLat="-1.499500"/>
    </timestep>
    <timestep time="8.000">
        <vehicle id="v0" x="80.670000" y="-3.899500" angle="90.000000" speed="13.890000" pos="80.670000" lane="e0_0" acceleration="0.000000" posLat="-1.499500"/>
    </timestep>
    <timestep time="9.000">
        <vehicle id="v0" x="94.560000" y="-3.899500" angle="90.000000" speed="13.890000" pos="94.560000" lane="e0_0" acceleration="0.000000" posLat="-1.499500"/>
    </timestep>
    <timestep time="10.000">
        <vehicle id="v0" x="108.450000" y="-3.899500" angle="90.000000" speed="13.890000" pos="108.450000" lane="e0_0" acceleration="0.000000" posLat="-1.499500"/>
    </timestep>
    <timestep time="11.000">
        <vehicle id="v0" x="122.340000" y="-3.899500" angle="90.000000" speed="13.890000" pos="122.340000" lane="e0_0" acceleration="0.000000" posLat="-1.499500"/>
    </timestep>
    <timestep time="12.000">
        <vehicle id="v0" x="136.230000" y="-3.899500" angle="90.000000" speed="13.890000" pos="136.230000" lane="e0_0" acceleration="0.000000" posLat="-1.499500"/>
    </timestep>
    <timestep time="13.000">
        <vehicle id="v0" x="150.120000" y="-3.899500" angle="90.000000" speed="13.890000" pos="150.120000" lane="e0_0" acceleration="0.000000" posLat="-1.499500"/>
    </timestep>
    <timestep time="14.000">
        <vehicle id="v0" x="164.010000" y="-3.899500" angle="90.000000" speed="13.890000" pos="164.010000" lane="e0_0" acceleration="0.000000" posLat="-1.499500"/>
    </timestep>
    <timestep time="15.000">
        <vehicle id="v0" x="177.900000" y="-3.899500" angle="90.000000" speed="13.890000" pos="177.900000" lane="e0_0" acceleration="0.000000" posLat="-1.499500"/>
    </timestep>
    <timestep time="16.000">
        <vehicle id="v0" x="191.790000" y="-3.899500" angle="90.000000" speed="13.890000" pos="191.790000" lane="e0_0" acceleration="0.000000" posLat="-1.499500"/>
    </timestep>
    <timestep time="17.000">
        <vehicle id="v0" x="205.680000" y="-3.899500" angle="90.000000" speed="13.890000" pos="205.680000" lane="e0_0" acceleration="0.000000" posLat="-1.499500"/>
    </timestep>
    <timestep time="18.000">
        <vehicle id="v0" x="219.570000" y="-3.899500" angle="90.000000" speed="13.890000" pos="219.570000" lane="e0_0" acceleration="0.000000" posLat="-1.499500"/>
    </timestep>
    <timestep time="19.000">
        <vehicle id="v0" x="233.460000" y="-3.899500" angle="90.000000" speed="13.890000" pos="233.460000" lane="e0_0" acceleration="0.000000" posLat="-1.499500"/>
    </timestep>
    <timestep time="20.000">
        <vehicle id="v0" x="247.350000" y="-3.899500" angle="90.000000" speed="13.890000" pos="247.350000" lane="e0_0" acceleration="0.000000" posLat="-1.499500"/>
    </timestep>
    <timestep time="21.000">
        <vehicle id="v0" x="261.240000" y="-3.899500" angle="90.000000" speed="13.890000" pos="261.240000" lane="e0_0" acceleration="0.000000" posLat="-1.499500"/>
    </timestep>
    <timestep time="22.000">
        <vehicle id="v0" x="275.130000" y="-3.899500" angle="90.000000" speed="13.890000" pos="275.130000" lane="e0_0" acceleration="0.000000" posLat="-1.499500"/>
    </timestep>
    <timestep time="23.000">
        <vehicle id="v0" x="289.020000" y="-3.899500" angle="90.000000" speed="13.890000" pos="289.020000" lane="e0_0" acceleration="0.000000" posLat="-1.499500"/>
    </timestep>
    <timestep time="24.000">
        <vehicle id="v0" x="302.910000" y="-3.899500" angle="90.000000" speed="13.890000" pos="302.910000" lane="e0_0" acceleration="0.000000" posLat="-1.499500"/>
    </timestep>
    <timestep time="25.000">
        <vehicle id="v0" x="316.800000" y="-3.899500" angle="90.000000" speed="13.890000" pos="316.800000" lane="e0_0" acceleration="0.000000" posLat="-1.499500"/>
    </timestep>
    <timestep time="26.000">
        <vehicle id="v0" x="330.690000" y="-3.899500" angle="90.000000" speed="13.890000" pos="330.690000" lane="e0_0" acceleration="0.000000" posLat="-1.499500"/>
    </timestep>
    <timestep time="27.000">
        <vehicle id="v0" x="344.580000" y="-3.899500" angle="90.000000" speed="13.890000" pos="344.580000" lane="e0_0" acceleration="0.000000" posLat="-1.499500"/>
    </timestep>
    <timestep time="28.000">
        <vehicle id="v0" x="358.470000" y="-3.899500" angle="90.000000" speed="13.890000" pos="358.470000" lane="e0_0" acceleration="0.000000" posLat="-1.499500"/>
    </timestep>
    <timestep time="29.000">
        <vehicle id="v0" x="372.360000" y="-3.899500" angle="90.000000" speed="13.890000" pos="372.360000" lane="e0_0" acceleration="0.000000" posLat="-1.499500"/>
    </timestep>
</fcd-export>
