<?xml version="1.0" encoding="UTF-8"?>

<!-- generated on 2026-07-18 12:48:26 by Eclipse SUMO sumo Version 1.20.0
<configuration xmlns:xsi="http://www.w3.org/2001/XMLSchema-instance" xsi:noNamespaceSchemaLocation="http://sumo.dlr.de/xsd/sumoConfiguration.xsd">

    <input>
        <net-file value="/home/user/SumoSharp/scenarios/68-serve-nocheat/net.net.xml"/>
        <route-files value="/home/user/SumoSharp/scenarios/68-serve-nocheat/rou.rou.xml"/>
        <additional-files value="/home/user/SumoSharp/scenarios/68-serve-nocheat/extra.add.xml"/>
    </input>

    <output>
        <precision value="6"/>
        <fcd-output value="/home/user/SumoSharp/scenarios/68-serve-nocheat/golden.fcd.xml"/>
        <fcd-output.acceleration value="true"/>
        <tripinfo-output value="/home/user/SumoSharp/scenarios/68-serve-nocheat/golden.tripinfo.xml"/>
        <save-state.times value="1"/>
        <save-state.files value="/home/user/SumoSharp/scenarios/68-serve-nocheat/golden.state.xml"/>
    </output>

    <time>
        <begin value="0"/>
        <end value="100"/>
        <step-length value="1"/>
    </time>

    <processing>
        <step-method.ballistic value="false"/>
        <collision.action value="none"/>
        <time-to-teleport value="-1"/>
        <default.action-step-length value="1"/>
        <default.speeddev value="0"/>
    </processing>

    <report>
        <no-step-log value="true"/>
    </report>

    <random_number>
        <seed value="42"/>
    </random_number>

</configuration>
-->

<tripinfos xmlns:xsi="http://www.w3.org/2001/XMLSchema-instance" xsi:noNamespaceSchemaLocation="http://sumo.dlr.de/xsd/tripinfo_file.xsd">
    <tripinfo id="originPark0" depart="0.000" departLane="eB_0" departPos="100.000000" departSpeed="0.000000" departDelay="0.000" arrival="51.000" arrivalLane="eC_0" arrivalPos="200.000000" arrivalSpeed="13.890000" duration="51.000" routeLength="400.100000" waitingTime="0.000" waitingCount="0" stopTime="20.000" timeLoss="2.192" rerouteNo="0" devices="tripinfo_originPark0 fcd_originPark0" vType="car" speedFactor="1.000000" vaporized=""/>
    <tripinfo id="through0" depart="0.000" departLane="eA_0" departPos="0.000000" departSpeed="0.000000" departDelay="0.000" arrival="53.000" arrivalLane="eC_0" arrivalPos="200.000000" arrivalSpeed="13.890000" duration="53.000" routeLength="700.200000" waitingTime="0.000" waitingCount="0" stopTime="0.000" timeLoss="2.431" rerouteNo="0" devices="tripinfo_through0 fcd_through0" vType="car" speedFactor="1.000000" vaporized=""/>
</tripinfos>
